# vtk DataFile Version 2.0
tracks
ASCII
DATASET POLYDATA
POINTS 12030 float
-0.0206 0.00099996 1e-05 -0.02058 0.000999962 1e-05 -0.02056 0.000999968 1e-05 -0.02054 0.000999976
1e-05 -0.02052 0.000999987 1e-05 -0.0205 0.001 1e-05 -0.0202034 0.0010002 1e-05
-0.0199069 0.00100062 1e-05 -0.0196103 0.00100123 1e-05 -0.0193137 0.00100203 1e-05 -0.0190172
0.00100302 1e-05 -0.0187132 0.00100436 1e-05 -0.0184093 0.00100548 1e-05 -0.0181054 0.0010066
1e-05 -0.0178015 0.00100772 1e-05 -0.0174976 0.00100883 1e-05 -0.0172058 0.00101006 1e-05
-0.016914 0.00101107 1e-05 -0.0166222 0.00101208 1e-05 -0.0163305 0.0010131 1e-05 -0.0160387
0.00101412 1e-05 -0.0157586 0.00101521 1e-05 -0.0154784 0.00101623 1e-05 -0.0151983 0.00101728
1e-05 -0.0149182 0.00101838 1e-05 -0.0146381 0.00101952 1e-05 -0.0143692 0.0010207 1e-05
-0.0141002 0.00102187 1e-05 -0.0138313 0.00102307 1e-05 -0.0135624 0.00102431 1e-05 -0.0132934
0.00102559 1e-05 -0.0132435 0.00102584 1e-05 -0.0131935 0.00102608 1e-05 -0.0131435 0.00102633
1e-05 -0.0130935 0.00102657 1e-05 -0.0130442 0.00102682 1e-05 -0.0128359 0.00102785 1e-05
-0.0126275 0.00102889 1e-05 -0.0124192 0.00102995 1e-05 -0.0122109 0.00103101 1e-05 -0.0120025
0.00103209 1e-05 -0.0117547 0.00103338 1e-05 -0.0115068 0.00103468 1e-05 -0.0112589 0.00103599
1e-05 -0.0110111 0.0010373 1e-05 -0.0107632 0.00103862 1e-05 -0.0105252 0.00103988 1e-05
-0.0102873 0.00104115 1e-05 -0.0100493 0.00104242 1e-05 -0.00981133 0.00104369 1e-05 -0.00957337
0.00104497 1e-05 -0.00934491 0.00104618 1e-05 -0.00911645 0.0010474 1e-05 -0.008888 0.00104861
1e-05 -0.00865954 0.00104982 1e-05 -0.00843108 0.00105103 1e-05 -0.00821175 0.00105218 1e-05
-0.00799242 0.00105333 1e-05 -0.00777309 0.00105448 1e-05 -0.00755376 0.00105563 1e-05 -0.00733443
0.00105677 1e-05 -0.00712387 0.00105786 1e-05 -0.0069133 0.00105895 1e-05 -0.00670273 0.00106003
1e-05 -0.00649216 0.00106111 1e-05 -0.0062816 0.00106219 1e-05 -0.00607944 0.00106321 1e-05
-0.00587729 0.00106423 1e-05 -0.00567514 0.00106525 1e-05 -0.00547298 0.00106626 1e-05 -0.00527083
0.00106728 1e-05 -0.00507675 0.00106824 1e-05 -0.00488267 0.0010692 1e-05 -0.0046886 0.00107016
1e-05 -0.00449452 0.00107111 1e-05 -0.00430044 0.00107206 1e-05 -0.00411412 0.00107296 1e-05
-0.0039278 0.00107387 1e-05 -0.00374147 0.00107477 1e-05 -0.00355515 0.00107566 1e-05 -0.00336883
0.00107656 1e-05 -0.00318995 0.00107741 1e-05 -0.00301107 0.00107826 1e-05 -0.00283219 0.00107911
1e-05 -0.00265331 0.00107995 1e-05 -0.00247443 0.0010808 1e-05 -0.0023027 0.0010816 1e-05
-0.00213097 0.0010824 1e-05 -0.00195924 0.00108321 1e-05 -0.0017875 0.00108401 1e-05 -0.00161577
0.00108481 1e-05 -0.0014509 0.00108556 1e-05 -0.00128603 0.00108633 1e-05 -0.00112116 0.00108709
1e-05 -0.000956289 0.00108785 1e-05 -0.000791418 0.00108861 1e-05 -0.000633135 0.00108934 1e-05
-0.000474851 0.00109007 1e-05 -0.000316567 0.0010908 1e-05 -0.000158284 0.00109152 1e-05 0
0.00109225 1e-05 0.000105677 0.00109273 1e-05 0.000211355 0.00109321 1e-05 0.000317032 0.00109368
1e-05 0.00042271 0.00109415 1e-05 0.000528387 0.00109462 1e-05 0.000634886 0.00109509 1e-05
0.000741385 0.00109555 1e-05 0.000847885 0.00109602 1e-05 0.000954384 0.00109647 1e-05 0.00106088
0.00109693 1e-05 0.00116821 0.00109738 1e-05 0.00127554 0.00109783 1e-05 0.00138286 0.00109827
1e-05 0.00149019 0.00109871 1e-05 0.00159752 0.00109914 1e-05 0.00170568 0.00109957 1e-05
0.00181384 0.00109999 1e-05 0.001922 0.0011004 1e-05 0.00203016 0.00110081 1e-05 0.00213833
0.00110121 1e-05 0.00224733 0.00110159 1e-05 0.00235633 0.00110198 1e-05 0.00246533 0.00110236
1e-05 0.00257434 0.00110272 1e-05 0.00268334 0.00110308 1e-05 0.00279319 0.00110343 1e-05
0.00290304 0.00110378 1e-05 0.00301289 0.00110411 1e-05 0.00312274 0.00110444 1e-05 0.00323259
0.00110477 1e-05 0.00334329 0.00110508 1e-05 0.003454 0.00110539 1e-05 0.0035647 0.00110569
1e-05 0.0036754 0.00110598 1e-05 0.00378611 0.00110627 1e-05 0.00389767 0.00110654 1e-05
0.00400924 0.00110682 1e-05 0.0041208 0.00110708 1e-05 0.00423237 0.00110734 1e-05 0.00434393
0.00110759 1e-05 0.00445636 0.00110783 1e-05 0.00456879 0.00110807 1e-05 0.00468123 0.0011083
1e-05 0.00479366 0.00110852 1e-05 0.00490609 0.00110873 1e-05 0.0050194 0.00110893 1e-05
0.0051327 0.00110913 1e-05 0.00524601 0.00110933 1e-05 0.00535931 0.00110951 1e-05 0.00547262
0.00110969 1e-05 0.00558681 0.00110986 1e-05 0.005701 0.00111002 1e-05 0.00581518 0.00111017
1e-05 0.00592937 0.00111032 1e-05 0.00604356 0.00111046 1e-05 0.00615863 0.00111059 1e-05
0.00627371 0.00111072 1e-05 0.00638878 0.00111084 1e-05 0.00650386 0.00111095 1e-05 0.00661893
0.00111106 1e-05 0.0067349 0.00111115 1e-05 0.00685087 0.00111124 1e-05 0.00696684 0.00111133
1e-05 0.00708281 0.0011114 1e-05 0.00719878 0.00111147 1e-05 0.00723872 0.00111149 1e-05
0.00727866 0.00111151 1e-05 0.0073186 0.00111153 1e-05 0.00735854 0.00111155 1e-05 0.00739773
0.00111156 1e-05 0.00747481 0.00111159 1e-05 0.00755189 0.00111162 1e-05 0.00762897 0.00111165
1e-05 0.00770605 0.00111167 1e-05 0.00778313 0.00111169 1e-05 0.00790091 0.00111171 1e-05
0.00801869 0.00111172 1e-05 0.00813647 0.00111173 1e-05 0.00825425 0.00111173 1e-05 0.00837203
0.00111172 1e-05 0.00849073 0.0011117 1e-05 0.00860942 0.00111167 1e-05 0.00872812 0.00111164
1e-05 0.00884682 0.0011116 1e-05 0.00896551 0.00111155 1e-05 0.00908513 0.00111149 1e-05
0.00920475 0.00111142 1e-05 0.00932437 0.00111135 1e-05 0.00944398 0.00111127 1e-05 0.0095636
0.00111118 1e-05 0.00968415 0.00111108 1e-05 0.0098047 0.00111097 1e-05 0.00992525 0.00111086
1e-05 0.0100458 0.00111074 1e-05 0.0101663 0.00111061 1e-05 0.0102878 0.00111045 1e-05
0.0104093 0.00111031 1e-05 0.0105308 0.00111015 1e-05 0.0106523 0.00110999 1e-05 0.0107738
0.00110981 1e-05 0.0108962 0.00110962 1e-05 0.0110186 0.00110943 1e-05 0.0111411 0.00110923
1e-05 0.0112635 0.00110902 1e-05 0.0113859 0.0011088 1e-05 0.0115093 0.00110856 1e-05
0.0116327 0.00110833 1e-05 0.0117561 0.00110808 1e-05 0.0118795 0.00110783 1e-05 0.0120028
0.00110757 1e-05 0.0121272 0.00110728 1e-05 0.0122515 0.001107 1e-05 0.0123759 0.00110671
1e-05 0.0125002 0.00110641 1e-05 0.0126245 0.00110611 1e-05 0.0127498 0.00110577 1e-05
0.0128752 0.00110545 1e-05 0.0130005 0.00110511 1e-05 0.0131258 0.00110477 1e-05 0.0132511
0.00110441 1e-05 0.0133774 0.00110403 1e-05 0.0135036 0.00110366 1e-05 0.0136299 0.00110327
1e-05 0.0137562 0.00110288 1e-05 0.0138825 0.00110248 1e-05 0.0140098 0.00110206 1e-05
0.014137 0.00110163 1e-05 0.0142643 0.0011012 1e-05 0.0143915 0.00110076 1e-05 0.0145188
0.00110031 1e-05 0.0146471 0.00109983 1e-05 0.0147753 0.00109936 1e-05 0.0149036 0.00109888
1e-05 0.0150318 0.00109839 1e-05 0.0151601 0.00109788 1e-05 0.0152893 0.00109737 1e-05
0.0154186 0.00109684 1e-05 0.0155478 0.00109631 1e-05 0.0156771 0.00109577 1e-05 0.0158063
0.00109521 1e-05 0.0159366 0.00109465 1e-05 0.0160668 0.00109407 1e-05 0.0161971 0.00109349
1e-05 0.0163273 0.0010929 1e-05 0.0164576 0.0010923 1e-05 0.0165889 0.00109168 1e-05
0.0167201 0.00109106 1e-05 0.0168514 0.00109042 1e-05 0.0169827 0.00108978 1e-05 0.0171139
0.00108913 1e-05 0.0172462 0.00108847 1e-05 0.0173785 0.00108779 1e-05 0.0175108 0.00108711
1e-05 0.0176431 0.00108641 1e-05 0.0177754 0.00108571 1e-05 0.0179087 0.001085 1e-05
0.018042 0.00108427 1e-05 0.0181753 0.00108354 1e-05 0.0183087 0.00108279 1e-05 0.018442
0.00108204 1e-05 0.0185763 0.00108128 1e-05 0.0187107 0.00108051 1e-05 0.018845 0.00107971
1e-05 0.0189794 0.00107891 1e-05 0.0191137 0.00107811 1e-05 0.0192491 0.00107731 1e-05
0.0193845 0.00107648 1e-05 0.0195199 0.00107564 1e-05 0.0196553 0.00107479 1e-05 0.0197907
0.00107394 1e-05 0.0199272 0.00107308 1e-05 0.0200636 0.00107221 1e-05 0.0202001 0.00107131
1e-05 0.0203365 0.00107041 1e-05 0.020473 0.00106951 1e-05 0.0206105 0.00106861 1e-05
0.020748 0.00106768 1e-05 0.0208855 0.00106674 1e-05 0.021023 0.00106578 1e-05 0.0211606
0.00106483 1e-05 0.0212991 0.00106388 1e-05 0.0214377 0.00106291 1e-05 0.0215763 0.00106191
1e-05 0.0217149 0.0010609 1e-05 0.0218535 0.0010599 1e-05 0.0219931 0.0010589 1e-05
0.0221328 0.00105788 1e-05 0.0222724 0.00105683 1e-05 0.0224121 0.00105577 1e-05 0.0225517
0.00105472 1e-05 0.0226925 0.00105367 1e-05 0.0228332 0.0010526 1e-05 0.022974 0.0010515
1e-05 0.0231147 0.00105039 1e-05 0.0232555 0.00104929 1e-05 0.0233973 0.00104819 1e-05
0.0235391 0.00104706 1e-05 0.023681 0.00104591 1e-05 0.0238228 0.00104475 1e-05 0.0239647
0.0010436 1e-05 0.0241076 0.00104245 1e-05 0.0242505 0.00104127 1e-05 0.0243935 0.00104006
1e-05 0.0245364 0.00103885 1e-05 0.0246794 0.00103765 1e-05 0.0248234 0.00103645 1e-05
0.0249675 0.00103522 1e-05 0.0251115 0.00103396 1e-05 0.0252556 0.0010327 1e-05 0.0253996
0.00103144 1e-05 0.0255448 0.00103019 1e-05 0.02569 0.00102891 1e-05 0.0258351 0.0010276
1e-05 0.0259803 0.00102629 1e-05 0.0261255 0.00102498 1e-05 0.0262718 0.00102367 1e-05
0.0264181 0.00102234 1e-05 0.0265644 0.00102098 1e-05 0.0267107 0.00101961 1e-05 0.026857
0.00101825 1e-05 0.0270044 0.00101689 1e-05 0.0271519 0.0010155 1e-05 0.0272993 0.00101409
1e-05 0.0274468 0.00101267 1e-05 0.0275942 0.00101125 1e-05 0.0277428 0.00100984 1e-05
0.0278914 0.00100839 1e-05 0.0280399 0.00100693 1e-05 0.0281885 0.00100546 1e-05 0.0283371
0.00100398 1e-05 0.0284869 0.00100251 1e-05 0.0286366 0.001001 1e-05 0.0287863 0.000999484
1e-05 0.0289361 0.000997957 1e-05 0.0290858 0.000996426 1e-05 0.0292367 0.000994891 1e-05
0.0293876 0.000993327 1e-05 0.0295385 0.000991752 1e-05 0.0296894 0.000990168 1e-05 0.0298403
0.000988577 1e-05 0.0299924 0.000986981 1e-05 0.0301445 0.000985356 1e-05 0.0302966 0.000983722
1e-05 0.0304486 0.000982079 1e-05 0.0306007 0.000980427 1e-05 0.030754 0.000978769 1e-05
0.0309072 0.000977083 1e-05 0.0310605 0.000975388 1e-05 0.0312138 0.000973684 1e-05 0.031367
0.000971971 1e-05 0.0315215 0.000970246 1e-05 0.0316759 0.000968498 1e-05 0.0318304 0.00096674
1e-05 0.0319848 0.000964972 1e-05 0.0321393 0.000963195 1e-05 0.0322949 0.000961402 1e-05
0.0324506 0.000959589 1e-05 0.0326062 0.000957765 1e-05 0.0327619 0.000955931 1e-05 0.0329175
[...]
POINT_DATA 12030
FIELD attributes 4
age 1 12030 float
-9.99969e-06 -7.99971e-06 -5.99975e-06 -3.99981e-06 -1.9999e-06 0 2.96552e-05 5.93039e-05 8.8946e-05 0.000118582 0.000148211
0.000178558 0.000208896 0.000239221 0.000269532 0.000299829 0.000328897 0.000357958 0.000387006 0.000416043 0.000445069
0.000472923 0.000500772 0.000528614 0.00055645 0.000584279 0.000610991 0.000637699 0.000664404 0.000691105 0.000717803
0.000722766 0.000727727 0.000732689 0.000737651 0.000742542 0.000763222 0.000783901 0.000804579 0.000825257 0.000845934
0.000870534 0.000895134 0.000919735 0.000944337 0.00096894 0.000992562 0.00101618 0.00103981 0.00106344 0.00108707
0.00110976 0.00113245 0.00115515 0.00117784 0.00120055 0.00122235 0.00124415 0.00126595 0.00128776 0.00130958
0.00133053 0.00135148 0.00137243 0.00139339 0.00141436 0.00143449 0.00145462 0.00147476 0.0014949 0.00151505
0.00153441 0.00155375 0.00157311 0.00159247 0.00161183 0.00163044 0.00164903 0.00166764 0.00168624 0.00170485
0.00172274 0.00174061 0.00175849 0.00177638 0.00179426 0.00181145 0.00182863 0.00184582 0.00186301 0.0018802
0.00189672 0.00191324 0.00192975 0.00194627 0.0019628 0.00197868 0.00199455 0.00201042 0.00202629 0.00204217
0.00205278 0.00206339 0.00207399 0.0020846 0.00209521 0.00210591 0.0021166 0.0021273 0.002138 0.00214869
0.00215949 0.00217027 0.00218106 0.00219185 0.00220264 0.00221353 0.00222441 0.00223529 0.00224617 0.00225705
0.00226803 0.00227901 0.00228998 0.00230096 0.00231194 0.00232302 0.00233409 0.00234516 0.00235624 0.00236732
0.0023785 0.00238967 0.00240085 0.00241203 0.00242321 0.00243449 0.00244577 0.00245705 0.00246833 0.00247962
0.00249101 0.00250239 0.00251378 0.00252517 0.00253657 0.00254807 0.00255956 0.00257106 0.00258257 0.00259408
0.00260569 0.0026173 0.00262892 0.00264054 0.00265217 0.0026639 0.00267563 0.00268736 0.00269911 0.00271086
0.00272271 0.00273456 0.00274643 0.0027583 0.00277017 0.00277427 0.00277836 0.00278245 0.00278655 0.00279057
0.00279848 0.00280639 0.0028143 0.00282222 0.00283014 0.00284226 0.00285437 0.0028665 0.00287864 0.00289078
0.00290304 0.0029153 0.00292757 0.00293985 0.00295213 0.00296455 0.00297695 0.00298936 0.00300178 0.00301422
0.00302679 0.00303934 0.0030519 0.00306448 0.00307706 0.0030898 0.0031025 0.00311522 0.00312796 0.0031407
0.0031536 0.00316646 0.00317935 0.00319224 0.00320514 0.00321821 0.00323125 0.0032443 0.00325736 0.00327043
0.00328367 0.00329688 0.0033101 0.00332333 0.00333658 0.00335 0.00336338 0.00337678 0.00339019 0.00340361
0.00341722 0.00343078 0.00344436 0.00345795 0.00347156 0.00348535 0.0034991 0.00351286 0.00352664 0.00354044
0.00355442 0.00356837 0.00358232 0.00359629 0.00361028 0.00362447 0.00363861 0.00365276 0.00366692 0.00368111
0.00369549 0.00370984 0.00372418 0.00373855 0.00375294 0.00376753 0.00378208 0.00379662 0.00381119 0.00382579
0.00384058 0.00385534 0.00387009 0.00388486 0.00389967 0.00391467 0.00392964 0.0039446 0.00395957 0.0039746
0.0039898 0.00400499 0.00402016 0.00403535 0.00405059 0.004066 0.0040814 0.00409679 0.00411219 0.00412765
0.00414328 0.0041589 0.0041745 0.00419013 0.0042058 0.00422165 0.00423748 0.00425331 0.00426916 0.00428505
0.00430112 0.00431718 0.00433323 0.0043493 0.00436542 0.00438171 0.00439799 0.00441427 0.00443057 0.00444691
0.00446342 0.00447992 0.00449643 0.00451295 0.00452952 0.00454626 0.00456299 0.00457973 0.00459648 0.00461327
0.00463023 0.00464719 0.00466416 0.00468114 0.00469816 0.00471535 0.00473254 0.00474974 0.00476696 0.0047842
0.00480162 0.00481905 0.00483648 0.00485393 0.00487141 0.00488906 0.00490671 0.00492438 0.00494206 0.00495978
0.00497766 0.00499555 0.00501345 0.00503137 0.00504932 0.00506743 0.00508556 0.0051037 0.00512185 0.00514003
0.00515838 0.00517675 0.00519512 0.00521352 0.00523193 0.00525052 0.00526912 0.00528774 0.00530637 0.00532502
0.00534385 0.00536268 0.00538154 0.00540041 0.0054193 0.00543837 0.00545745 0.00547655 0.00549566 0.00551479
0.0055341 0.00555342 0.00557276 0.00559211 0.00561149 0.00563103 0.0056506 0.00567018 0.00568978 0.0057094
0.00572919 0.005749 0.00576882 0.00578866 0.00580853 0.00582856 0.00584862 0.00586869 0.00588878 0.00590888
0.0059174 0.00592591 0.00593443 0.00594296 0.00595134 0.00596316 0.00597498 0.00598682 0.00599866 0.0060105
0.00603103 0.00605158 0.00607215 0.00609274 0.00611335 0.00613413 0.00615494 0.00617576 0.0061966 0.00621746
0.0062385 0.00625956 0.00628063 0.00630173 0.00632284 0.00634414 0.00636545 0.00638678 0.00640814 0.00642951
0.00645106 0.00647263 0.00649422 0.00651583 0.00653746 0.00655927 0.0065811 0.00660295 0.00662482 0.00664671
0.00666878 0.00669087 0.00671299 0.00673512 0.00675727 0.00677961 0.00680196 0.00682434 0.00684674 0.00686915
0.00689175 0.00691437 0.00693702 0.00695969 0.00698237 0.00700523 0.00702812 0.00705104 0.00707397 0.00709692
0.00712006 0.00714322 0.00716641 0.00718962 0.00721284 0.00723625 0.00725968 0.00728315 0.00730663 0.00733012
0.00735381 0.00737752 0.00740126 0.00742502 0.00744879 0.00747276 0.00749675 0.00752077 0.00754481 0.00756887
0.00759312 0.00761739 0.0076417 0.00766602 0.00769036 0.0077149 0.00773946 0.00776406 0.00778867 0.00781329
0.00783812 0.00786298 0.00788786 0.00791276 0.00793768 0.0079628 0.00798795 0.00801313 0.00803833 0.00806354
0.00808896 0.00811442 0.00813989 0.00816539 0.0081909 0.00821663 0.00824239 0.00826817 0.00829396 0.00831978
0.00834582 0.00837189 0.00839798 0.00842408 0.00845021 0.00847656 0.00850294 0.00852934 0.00855577 0.00858221
0.00860466 0.00862713 0.00864962 0.00867212 0.00869341 0.00869789 0.00870237 0.00870686 0.00871134 0.00871583
0.00874283 0.00876985 0.0087969 0.00882397 0.00885107 0.00887839 0.00890575 0.00893313 0.00896054 0.00898798
0.00901564 0.00904334 0.00907106 0.00909881 0.00912659 0.0091546 0.00918265 0.00921072 0.00923882 0.00926695
0.00929531 0.00932371 0.00935214 0.00938059 0.00940908 0.0094378 0.00946655 0.00949535 0.00952417 0.00955302
0.0095821 0.00961122 0.00964039 0.00966959 0.0096988 0.00972826 0.00975776 0.00978731 0.00981688 0.00984648
0.00987632 0.0099062 0.00993613 0.0099661 0.00999608 0.0100263 0.0100566 0.0100869 0.0101173 0.0101477
0.0101783 0.010209 0.0102397 0.0102705 0.0103013 0.0103323 0.0103634 0.0103945 0.0104257 0.0104569
0.0104884 0.0105199 0.0105515 0.0105831 0.0106147 0.0106466 0.0106786 0.0107105 0.0107426 0.0107746
0.0107861 0.0107975 0.0108089 0.0108203 0.0108315 0.0108525 0.0108736 0.0108947 0.0109158 0.0109369
0.0109697 0.0110025 0.0110355 0.0110684 0.0111014 0.0111347 0.011168 0.0112014 0.0112349 0.0112683
0.0113021 0.011336 0.0113698 0.0114038 0.0114378 0.011472 0.0115064 0.0115408 0.0115752 0.0116097
0.0116445 0.0116794 0.0117143 0.0117493 0.0117843 0.0118197 0.0118551 0.0118906 0.0119261 0.0119617
0.0119976 0.0120335 0.0120696 0.0121056 0.0121418 0.0121783 0.0122148 0.0122514 0.0122881 0.0123248
0.0123619 0.012399 0.0124362 0.0124734 0.0125108 0.0125116 0.0125125 0.0125134 0.0125143 0.0125152
0.012552 0.0125888 0.0126258 0.0126628 0.0126998 0.0127381 0.0127765 0.0128149 0.0128534 0.012892
0.0129309 0.0129699 0.013009 0.0130481 0.0130873 0.0131269 0.0131666 0.0132063 0.0132461 0.013286
0.0133263 0.0133667 0.0134071 0.0134476 0.0134882 0.0135292 0.0135703 0.0136114 0.0136526 0.013694
0.0137357 0.0137775 0.0138194 0.0138614 0.0139035 0.0139379 0.0139724 0.0140069 0.0140415 0.0140744
0.0140829 0.0140914 0.0140999 0.0141084 0.0141169 0.0141602 0.0142036 0.014247 0.0142906 0.0143343
0.0143784 0.0144225 0.0144668 0.0145112 0.0145557 0.0146006 0.0146457 0.0146908 0.0147361 0.0147814
0.0148272 0.0148732 0.0149192 0.0149653 0.0150116 0.0150583 0.0151052 0.0151521 0.0151992 0.0152464
0.015294 0.0153418 0.0153898 0.0154378 0.015486 0.0155047 0.0155234 0.0155421 0.0155609 0.0155793
0.0156095 0.0156397 0.01567 0.0157003 0.0157307 0.0157804 0.0158302 0.0158802 0.0159303 0.0159805
0.0160312 0.0160821 0.0161331 0.0161843 0.0162356 0.0162875 0.0163395 0.0163916 0.0164439 0.0164963
0.0165493 0.0166025 0.0166558 0.0167092 0.0167629 0.0168171 0.0168714 0.016926 0.0169806 0.0170355
0.0170431 0.0170507 0.0170583 0.0170658 0.0170734 0.0171214 0.0171695 0.0172177 0.0172661 0.0173146
0.0173714 0.0174283 0.0174854 0.0175427 0.0176002 0.0176583 0.0177166 0.0177751 0.0178337 0.0178926
0.0179521 0.0180118 0.0180718 0.0181319 0.0181922 0.0182532 0.0183144 0.0183758 0.0184375 0.0184993
0.0185169 0.0185345 0.0185521 0.0185697 0.0185871 0.0186324 0.0186777 0.0187232 0.0187688 0.0188146
0.0188787 0.0189431 0.0190077 0.0190726 0.0191377 0.0192035 0.0192696 0.0193359 0.0194025 0.0194693
0.0195369 0.0196048 0.0196729 0.0197412 0.0198099 0.0198769 0.0199442 0.0200118 0.0200795 0.0201444
0.0201475 0.0201506 0.0201537 0.0201568 0.0201599 0.0202313 0.020303 0.0203749 0.0204471 0.0205197
0.0205931 0.0206668 0.0207407 0.020815 0.0208896 0.0209651 0.0210409 0.021117 0.0211934 0.0212702
0.0213479 0.021426 0.0215043 0.021583 0.0216621 0.0216829 0.0217037 0.0217246 0.0217454 0.021766
0.0218257 0.0218855 0.0219455 0.0220057 0.0220662 0.0221486 0.0222314 0.0223146 0.0223981 0.0224821
0.0225671 0.0226524 0.0227382 0.0228243 0.0229109 0.0229985 0.0230865 0.023175 0.0232638 0.0233532
0.023377 0.0234008 0.0234246 0.0234484 0.0234721 0.0235392 0.0236066 0.0236742 0.0237421 0.0238102
0.0239035 0.0239973 0.0240915 0.0241862 0.0242814 0.0243778 0.0244746 0.024572 0.0246698 0.0247681
0.0248677 0.0249678 0.0250684 0.0251694 0.0252711 0.0252735 0.0252759 0.0252783 0.0252807 0.0252831
0.0253837 0.0254848 0.0255864 0.0256885 0.0257912 0.0258976 0.0260045 0.026112 0.02622 0.0263287
0.0264387 0.0265494 0.0266605 0.0267723 0.0268847 0.0269519 0.0270193 0.027087 0.0271548 0.0272216
0.0272692 0.027317 0.0273649 0.0274128 0.0274609 0.0275787 0.0276971 0.0278162 0.0279359 0.0280563
0.0281781 0.0283007 0.0284239 0.0285477 0.0286723 0.0287985 0.0289253 0.0290528 0.0291811 0.02931
0.0293105 0.0293109 0.0293114 0.0293118 0.0293123 0.0294425 0.0295733 0.0297049 0.0298371 0.0299702
0.0301052 0.030241 0.0303776 0.0305149 0.0306529 0.0307926 0.0309331 0.0310743 0.0312162 0.031359
0.0314037 0.0314484 0.0314933 0.0315382 0.031583 0.0316837 0.0317847 0.0318861 0.0319878 0.0320899
0.0322393 0.0323895 0.0325405 0.0326924 0.0328449 0.0329993 0.0331545 0.0333106 0.0334674 0.033625
0.0336897 0.0337545 0.0338194 0.0338845 0.0339497 0.0340455 0.0341416 0.0342379 0.0343345 0.0344314
0.034596 0.0347614 0.0349276 0.0350946 0.0352623 0.0354319 0.0356024 0.0357738 0.0359458 0.0361185
0.036193 0.0362676 0.0363424 0.0364173 0.0364928 0.0365939 0.0366953 0.0367969 0.0368988 0.0370008
0.0371806 0.0373611 0.0375424 0.0377244 0.037907 0.0380915 0.0382769 0.038463 0.0386498 0.0388371
0.0389204 0.0390038 0.0390874 0.0391711 0.039256 0.0393627 0.0394695 0.0395766 0.0396839 0.0397912
0.0399851 0.0401797 0.0403749 0.0405707 0.0407667 0.0409649 0.0411636 0.0413631 0.0415629 0.0417631
0.0418684 0.0419739 0.0420795 0.0421852 0.0422937 0.0423906 0.0424877 0.0425848 0.0426821 0.0427793
0.0429852 0.0431916 0.0433984 0.0436056 0.0438128 0.044022 0.0442316 0.0444417 0.044652 0.0448622
0.0450231 0.0451843 0.0453456 0.045507 0.0456765 0.0457263 0.0457762 0.045826 0.0458759 0.0459258
0.0461406 0.0463556 0.0465708 0.0467861 0.0470012 0.0472181 0.0474352 0.0476524 0.0478697 0.0480866
0.0483053 0.048524 0.0487428 0.0489616 0.0491799 0.0492455 0.049311 0.0493766 0.0494421 0.0495094
0.0496635 0.0498175 0.0499715 0.0501254 0.050279 0.0505 0.0507209 0.0509416 0.0511622 0.0513822
0.0516037 0.051825 0.0520462 0.0522671 0.0524873 0.052709 0.0529305 0.0531516 0.0533724 0.0535925
0.0536765 0.0537604 0.0538442 0.053928 0.0540167 0.0541528 0.0542888 0.0544246 0.0545602 0.0546956
0.0549165 0.0551371 0.0553572 0.0555768 0.0557954 0.0560153 0.0562346 0.0564534 0.0566717 0.0568889
0.0571074 0.0573255 0.0575431 0.0577598 0.057975 0.0581824 0.0583894 0.0585956 0.058801 0.0590051
0.0590174 0.0590296 0.0590417 0.0590539 0.0590663 0.0592651 0.0594629 0.0596599 0.0598558 0.0600505
0.0602643 0.060477 0.0606885 0.0608989 0.0611078 0.0613235 0.061538 0.0617513 0.0619631 0.0621734
0.0622897 0.0624055 0.0625209 0.0626358 0.0627631 0.0628595 0.0629556 0.0630514 0.0631469 0.0632421
0.0634598 0.0636759 0.0638905 0.0641034 0.0643146 0.0645324 0.0647484 0.0649628 0.0651755 0.0653864
0.0656037 0.0658192 0.0660329 0.0662448 0.0664549 0.0665962 0.0667367 0.0668764 0.0670152 0.0671749
0.0672436 0.067312 0.0673802 0.0674483 0.0675162 0.0677313 0.0679445 0.0681557 0.068365 0.0685725
0.068786 0.0689976 0.0692072 0.0694148 0.0696205 0.0698322 0.0700418 0.0702495 0.0704551 0.0706588
0.0708684 0.071076 0.0712815 0.0714849 0.0716865 0.0718816 0.0720748 0.0722662 0.0724558 0.0726948
0.0726964 0.072698 0.0726995 0.0727011 0.0727027 0.0729076 0.0731105 0.0733112 0.07351 0.0737068
0.0739093 0.0741096 0.0743079 0.0745041 0.0746985 0.0748984 0.0750962 0.0752919 0.0754855 0.0756774
0.0758746 0.0760698 0.0762629 0.076454 0.0766432 0.0768378 0.0770302 0.0772206 0.077409 0.0775956
0.0777875 0.0779773 0.0781651 0.0783509 0.0785348 0.0787237 0.0789105 0.0790954 0.0792783 0.0794595
0.0796458 0.0798301 0.0800123 0.0801923 0.0803704 0.0804214 0.0804723 0.080523 0.0805736 0.0806298
0.0807586 0.0808864 0.0810132 0.0811391 0.0812642 0.081445 0.0816236 0.0817998 0.0819735 0.082145
0.08232 0.0824913 0.0826607 0.0828282 0.0829942 -9.99997e-06 -7.99997e-06 -5.99998e-06 -3.99998e-06 -1.99999e-06
0 2.96566e-05 5.93127e-05 8.89678e-05 0.000118621 0.000148273 0.000178657 0.000209038 0.000239416 0.00026979
0.000300159 0.00032931 0.000358456 0.000387598 0.000416734 0.000445865 0.000473827 0.000501784 0.000529737 0.000557684
0.000585627 0.000612449 0.000639267 0.00066608 0.000692889 0.000719694 0.000745424 0.00077115 0.000796872 0.00082259
0.000848304 0.000872987 0.000897666 0.000922342 0.000947014 0.000971682 0.000995362 0.00101904 0.00104271 0.00106638
0.00109005 0.00111276 0.00113548 0.00115819 0.0011809 0.00120361 0.0012254 0.0012472 0.00126899 0.00129078
0.00131257 0.00133348 0.00135439 0.0013753 0.00139621 0.00141711 0.00143718 0.00145724 0.0014773 0.00149736
0.00151742 0.00153668 0.00155593 0.00157518 0.00159443 0.00161368 0.00163216 0.00165063 0.0016691 0.00168758
0.00170605 0.00172378 0.0017415 0.00175923 0.00177696 0.00179468 0.00181169 0.00182871 0.00184572 0.00186273
0.00187973 0.00189606 0.00191239 0.00192871 0.00194503 0.00196136 0.00197702 0.00199269 0.00200836 0.00202402
0.00203968 0.00205014 0.0020606 0.00207105 0.00208151 0.00209196 0.00210249 0.00211303 0.00212356 0.0021341
0.00214463 0.00215524 0.00216585 0.00217647 0.00218708 0.00219769 0.00220838 0.00221908 0.00222977 0.00224046
0.00225115 0.00226193 0.0022727 0.00228347 0.00229424 0.00230502 0.00231587 0.00232673 0.00233758 0.00234843
0.00235929 0.00237022 0.00238116 0.0023921 0.00240303 0.00241397 0.00242499 0.002436 0.00244702 0.00245804
0.00246906 0.00248016 0.00249127 0.00250237 0.00251347 0.00252457 0.00253576 0.00254695 0.00255813 0.00256932
0.00258051 0.00259178 0.00260305 0.00261433 0.0026256 0.00263687 0.00264823 0.00265959 0.00267095 0.0026823
0.00269366 0.00270511 0.00271656 0.002728 0.00273945 0.00275089 0.00276242 0.00277396 0.00278549 0.00279702
0.00280856 0.00282018 0.0028318 0.00284342 0.00285504 0.00286667 0.00287838 0.00289009 0.0029018 0.00291351
0.00292522 0.00293702 0.00294882 0.00296063 0.00297243 0.00298423 0.00299612 0.00300801 0.0030199 0.00303179
0.00304369 0.00305567 0.00306765 0.00307964 0.00309162 0.0031036 0.00311568 0.00312775 0.00313983 0.00315191
0.00316398 0.00317615 0.00318832 0.00320049 0.00321266 0.00322482 0.00323709 0.00324935 0.00326161 0.00327387
0.00328613 0.00329849 0.00331085 0.00332321 0.00333556 0.00334792 0.00336037 0.00337282 0.00338527 0.00339773
0.00341018 0.00342272 0.00343527 0.00344782 0.00346037 0.00347291 0.00348556 0.0034982 0.00351085 0.00352349
0.00353613 0.00354888 0.00356162 0.00357436 0.0035871 0.00359984 0.00361268 0.00362552 0.00363836 0.0036512
0.00366404 0.00367698 0.00368992 0.00370285 0.00371579 0.00372873 0.00373588 0.00374303 0.00375017 0.00375732
0.00376445 0.00377034 0.00377624 0.00378213 0.00378803 0.00379392 0.00380706 0.0038202 0.00383333 0.00384647
0.00385961 0.00387285 0.00388609 0.00389933 0.00391256 0.0039258 0.00393914 0.00395249 0.00396583 0.00397917
0.00399251 0.00400595 0.00401939 0.00403284 0.00404628 0.00405972 0.00407327 0.00408682 0.00410036 0.00411391
0.00412746 0.00414111 0.00415476 0.00416841 0.00418206 0.00419571 0.00420947 0.00422322 0.00423698 0.00425073
0.00426449 0.00427835 0.00429221 0.00430608 0.00431994 0.0043338 0.00434777 0.00436174 0.0043757 0.00438967
0.00440364 0.00441772 0.00443179 0.00444587 0.00445994 0.00447402 0.0044882 0.00450239 0.00451657 0.00453075
0.00454494 0.00455923 0.00457353 0.00458782 0.00460211 0.0046164 0.00463081 0.00464522 0.00465962 0.00467402
0.00468842 0.00470294 0.00471746 0.00473197 0.00474648 0.004761 0.00477563 0.00479026 0.00480488 0.00481951
0.00483413 0.00484888 0.00486362 0.00487836 0.0048931 0.00490784 0.00492269 0.00493755 0.0049524 0.00496725
0.00498211 0.00499708 0.00501205 0.00502702 0.00504199 0.00505696 0.00507205 0.00508713 0.00510222 0.0051173
0.00513239 0.0051476 0.0051628 0.005178 0.00519321 0.00520841 0.00522374 0.00523906 0.00525438 0.0052697
0.00528503 0.00530047 0.00531591 0.00533135 0.0053468 0.00536224 0.00537781 0.00539337 0.00540893 0.0054245
0.00544006 0.00545575 0.00547144 0.00548712 0.00550281 0.0055185 0.00553431 0.00555012 0.00556593 0.00558174
0.00559755 0.00561349 0.00562942 0.00564536 0.0056613 0.00567723 0.0056933 0.00570936 0.00572542 0.00574149
0.00575755 0.00577374 0.00578994 0.00580613 0.00582232 0.00583851 0.00584891 0.00585931 0.00586971 0.00588011
0.00589036 0.00589632 0.00590227 0.00590822 0.00591417 0.00592013 0.00593658 0.00595303 0.00596949 0.00598594
0.0060024 0.00601899 0.00603558 0.00605217 0.00606876 0.00608535 0.00610208 0.0061188 0.00613553 0.00615225
0.00616898 0.00618585 0.00620271 0.00621957 0.00623643 0.0062533 0.00627031 0.00628731 0.00630432 0.00632132
0.00633832 0.00635549 0.00637263 0.00638977 0.00640692 0.00642407 0.00644138 0.00645867 0.00647596 0.00649325
0.00651055 0.00652801 0.00654546 0.00656289 0.00658032 0.00659778 0.0066154 0.00663299 0.00665057 0.00666815
0.00668576 0.00670354 0.00672129 0.00673902 0.00675676 0.00677453 0.00679246 0.00681037 0.00682826 0.00684616
0.00686409 0.00688218 0.00690026 0.00691831 0.00693637 0.00695446 0.00697272 0.00699096 0.00700918 0.0070274
0.00704566 0.00706409 0.0070825 0.00710088 0.00711928 0.0071377 0.00715631 0.00717489 0.00719345 0.00721202
0.00723062 0.0072494 0.00726815 0.0072869 0.00730565 0.00732443 0.00734338 0.00736232 0.00738125 0.00740019
0.00741914 0.00743828 0.00745739 0.00747651 0.00749564 0.00751478 0.00753411 0.00755341 0.00757273 0.00759205
0.00761139 0.0076309 0.0076504 0.00766991 0.00768944 0.00770897 0.00772867 0.00774838 0.00776809 0.00778782
0.00780755 0.00780948 0.00781141 0.00781334 0.00781527 0.0078172 0.00783517 0.00785316 0.00787115 0.00788915
0.00790716 0.00792728 0.0079474 0.00796753 0.00798767 0.00800783 0.00802817 0.00804851 0.00806885 0.00808921
0.00810958 0.00813016 0.00815071 0.00817128 0.00819186 0.00821245 0.00823326 0.00825405 0.00827484 0.00829564
0.00831647 0.00833753 0.00835855 0.00837957 0.0084006 0.00842168 0.00844297 0.00846424 0.0084855 0.00850676
0.00852808 0.00854963 0.00857115 0.00859265 0.00861416 0.00863574 0.00865754 0.00867931 0.00870107 0.00872284
0.00874467 0.00876672 0.00878876 0.00881078 0.00883281 0.0088549 0.00887722 0.00889952 0.00892182 0.00894413
0.00896649 0.00898908 0.00901165 0.00903423 0.00905683 0.00907946 0.00910232 0.00912517 0.00914804 0.00917093
0.00919384 0.00921699 0.00924013 0.00926329 0.00928648 0.00930969 0.00932878 0.00934788 0.009367 0.00938613
0.00940455 0.00940905 0.00941355 0.00941805 0.00942255 0.00942705 0.00945078 0.00947453 0.00949831 0.00952211
0.00954594 0.00956999 0.00959405 0.00961815 0.00964227 0.00966641 0.0096908 0.00971518 0.0097396 0.00976404
0.00978852 0.00981324 0.00983797 0.00986272 0.00988749 0.00991231 0.00993738 0.00996245 0.00998753 0.0100126
0.0100378 0.0100632 0.0100887 0.0101141 0.0101396 0.0101651 0.0101909 0.0102167 0.0102425 0.0102683