/*--------------------------------*- C++ -*----------------------------------*\
  =========                 |
  \\      /  F ield         | OpenFOAM: The Open Source CFD Toolbox
   \\    /   O peration     | Website:  https://openfoam.org
    \\  /    A nd           | Version:  13
     \\/     M anipulation  |
\*---------------------------------------------------------------------------*/
FoamFile
{
    format      ascii;
    class       volScalarField;
    location    "100";
    object      epsilon;
}
// * * * * * * * * * * * * * * * * * * * * * * * * * * * * * * * * * * * * * //

dimensions      [0 2 -3 0 0 0 0];

internalField   nonuniform List<scalar> 
12225
(
279.387
251.25
228.529
209.286
193.591
180.363
169.577
161.129
154.185
149.284
145.864
143.689
143.611
144.358
146.044
149.175
153.723
160.697
41.6698
61.3683
70.3511
75.0534
78.0683
80.668
83.3221
86.9016
91.0951
96.5942
103.371
111.245
121.292
131.582
145.323
157.861
175.803
190.488
19.02
26.3004
31.4378
35.1221
37.8151
40.0606
41.886
43.8517
45.6664
47.9478
50.2427
53.2018
56.27
60.372
64.3499
69.7238
74.0376
80.8853
15.5132
17.7606
20.1219
22.1413
23.7505
25.176
26.2892
27.424
28.3172
29.411
30.2712
31.5039
32.4229
33.9404
34.9891
36.8855
38.0542
40.3366
14.9292
15.3412
16.254
17.2171
18.066
18.8869
19.5389
20.2114
20.7146
21.3153
21.7351
22.3343
22.7183
23.363
23.7476
24.4677
24.8841
25.716
14.7675
14.7743
14.9564
15.2698
15.635
16.0358
16.3721
16.739
17.0174
17.3464
17.5762
17.8834
18.0809
18.3838
18.5657
18.8774
19.0546
19.4112
14.7594
14.6191
14.5609
14.5776
14.6441
14.7619
14.8841
15.037
15.1588
15.3107
15.4198
15.5646
15.6611
15.8
15.8867
16.0244
16.104
16.2643
14.7644
14.5958
14.4536
14.3532
14.2825
14.2478
14.2372
14.2437
14.2586
14.2875
14.3095
14.3505
14.3752
14.4192
14.4445
14.4891
14.5177
14.5706
14.7658
14.5951
14.435
14.2947
14.1709
14.0684
13.9825
13.9154
13.8568
13.8147
13.7744
13.7483
13.72
13.7042
13.6834
13.6742
13.658
13.6637
14.7658
14.5952
14.4332
14.2832
14.1431
14.0164
13.8998
13.7971
13.7022
13.6202
13.5433
13.4778
13.4146
13.3625
13.3087
13.2683
13.2193
13.192
14.7658
14.5948
14.4329
14.2811
14.1374
14.0037
13.8775
13.7612
13.6516
13.5516
13.4569
13.3714
13.2893
13.2165
13.1446
13.0831
13.0188
12.9675
14.7657
14.5944
14.4326
14.2803
14.1361
14.0007
13.8724
13.7522
13.6382
13.532
13.4311
13.3375
13.2481
13.1658
13.0863
13.0143
12.9431
12.8802
14.7657
14.5942
14.4322
14.2798
14.1355
13.9995
13.8707
13.7492
13.634
13.5255
13.4224
13.3255
13.2332
13.1467
13.0638
12.9866
12.9122
12.8432
14.7657
14.594
14.432
14.2793
14.1349
13.9987
13.8697
13.7478
13.6322
13.523
13.4192
13.3211
13.2278
13.1396
13.0555
12.9761
12.9002
12.8286
14.7657
14.5938
14.4318
14.2789
14.1344
13.998
13.8689
13.7468
13.6311
13.5216
13.4176
13.3191
13.2255
13.1367
13.0523
12.9721
12.8958
12.8233
14.7657
14.5938
14.4316
14.2786
14.134
13.9975
13.8683
13.746
13.6302
13.5205
13.4165
13.3178
13.224
13.135
13.0504
12.9701
12.8935
12.8208
14.7657
14.5937
14.4315
14.2784
14.1338
13.9971
13.8678
13.7454
13.6295
13.5197
13.4156
13.3167
13.2229
13.1338
13.0491
12.9686
12.892
12.8191
14.7657
14.5937
14.4314
14.2782
14.1336
13.9968
13.8675
13.745
13.6291
13.5192
13.4149
13.316
13.2221
13.1329
13.0481
12.9675
12.8909
12.8179
14.7657
14.5937
14.4314
14.2782
14.1335
13.9968
13.8674
13.7449
13.6289
13.5189
13.4147
13.3157
13.2217
13.1325
13.0477
12.967
12.8903
12.8173
14.7657
14.5937
14.4315
14.2783
14.1337
13.9969
13.8676
13.7451
13.6291
13.5191
13.4149
13.3159
13.222
13.1328
13.048
12.9673
12.8907
12.8177
14.7657
14.5938
14.4316
14.2785
14.1339
13.9973
13.868
13.7456
13.6297
13.5198
13.4156
13.3168
13.223
13.1339
13.0493
12.9689
12.8924
12.8197
14.7657
14.5939
14.4318
14.2789
14.1344
13.9979
13.8689
13.7468
13.6314
13.522
13.4187
13.3206
13.228
13.14
13.0568
12.9777
12.903
12.8317
14.7658
14.594
14.4322
14.2795
14.1358
14.0004
13.8734
13.754
13.6422
13.5372
13.4391
13.3466
13.2606
13.1791
13.1035
13.0313
12.965
12.9006
14.7664
14.5939
14.4333
14.2841
14.1474
14.0227
13.9104
13.8087
13.7176
13.6349
13.5607
13.4928
13.432
13.3751
13.325
13.276
13.2349
13.1914
14.7677
14.5936
14.4525
14.3365
14.2487
14.1843
14.1405
14.1103
14.0919
14.0803
14.0748
14.073
14.0737
14.0758
14.0798
14.0824
14.0914
14.0901
14.7721
14.6446
14.659
14.7087
14.8253
14.9654
15.1173
15.2637
15.4082
15.5388
15.6663
15.7768
15.8883
15.9808
16.0813
16.1589
16.2544
16.3193
14.9069
15.179
15.8196
16.4936
17.1371
17.7084
18.2204
18.6599
19.0566
19.3968
19.7161
19.991
20.2667
20.501
20.7566
20.9671
21.2206
21.418
15.8997
18.7497
21.1915
23.1147
24.6495
25.8513
26.8457
27.65
28.3646
28.9781
29.573
30.1156
30.6869
31.2192
31.8215
32.3767
33.0417
33.6342
26.9101
37.6454
43.441
46.8295
49.0142
50.4665
51.5843
52.4795
53.3598
54.2229
55.1882
56.2323
57.4231
58.7051
60.1731
61.7122
63.4666
65.2434
164.53
154.677
146.282
138.92
132.505
126.806
121.811
117.38
113.486
110.082
107.063
104.523
102.235
100.367
98.7015
97.3896
96.2553
95.4006
4.23863
2.47555
3.66744
4.73264
5.7207
6.6096
7.35067
7.85703
7.98092
7.47009
7.56587
7.86616
8.17742
8.50909
8.79285
8.95861
38.156
45.751
52.3618
59.8213
67.628
75.8168
84.3336
93.1427
102.232
111.575
121.178
131.015
141.096
151.391
161.912
172.631
183.565
194.684
206.008
217.508
229.206
241.074
253.134
265.358
277.771
290.344
303.099
316.009
329.095
342.331
355.736
369.287
383.007
396.874
410.904
425.083
439.408
453.852
468.408
483.063
497.817
512.653
527.56
542.525
557.53
572.566
587.608
602.655
617.672
632.665
647.588
662.457
677.207
691.87
706.373
720.762
734.958
749.021
762.854
776.525
789.921
803.122
816.017
828.725
841.181
853.633
866.082
878.522
889.938
901.942
913.537
925.142
936.792
948.25
959.663
971.107
982.072
993.318
1004.1
1014.77
1025.05
1034.6
1042.93
1048.53
1047.59
1056.15
1075.48
1075.83
1083.47
1093.01
1100.99
1120.13
1123.34
1130.09
1135.41
1139.96
1140.08
1150.75
1145.67
1153.61
1148.36
1150.63
1155.35
1151.55
1155.43
1150.38
1144.99
1138.2
1130.09
1120.72
1110.01
1098.05
1084.78
1070.16
1054.15
1036.85
1018.25
998.461
977.537
955.482
932.122
907.97
882.88
857.053
830.646
803.294
774.716
746.714
719.735
692.651
665.729
646.16
629.864
614.202
598.827
583.178
567.337
551.645
536.186
520.813
505.584
490.768
476.63
462.724
449.048
435.759
422.983
410.744
398.997
387.738
376.993
366.745
356.984
347.696
338.859
330.438
322.417
314.659
307.354
299.684
293.261
283.809
278.71
256.424
9.50579
5.67596
5.37456
5.7523
6.42052
7.26082
8.22269
9.29483
10.5153
12.058
13.5318
14.9495
16.4608
18.3313
20.9099
25.3136
31.9433
36.188
40.1559
44.2344
48.4198
52.6893
57.0287
61.4311
65.8983
70.4276
75.0237
79.6848
84.4153
89.2124
94.0805
99.0165
104.024
109.101
114.25
119.469
124.761
130.123
135.558
141.063
146.642
152.289
158.009
163.797
169.657
175.586
181.587
187.662
193.818
200.04
206.323
212.658
219.041
225.471
231.941
238.446
244.984
251.546
258.13
264.727
271.332
277.94
284.542
291.133
297.705
304.251
310.763
317.235
323.657
330.022
336.319
342.546
348.69
354.751
360.715
366.584
372.344
378.002
383.55
389.005
394.367
399.659
404.864
409.956
414.887
419.801
424.595
429.32
433.962
438.504
442.947
447.282
451.464
455.551
459.45
463.177
466.664
469.844
472.649
475.023
477.188
480.517
484.074
485.755
488.348
489.481
492.309
497.338
499.039
500.096
502.914
503.86
503.78
506.917
505.933
506.682
506.904
508.373
508.314
507.191
507.859
506.174
504.259
501.889
499.091
495.856
492.176
488.052
483.472
478.417
472.876
466.853
460.31
453.263
445.719
437.683
429.134
420.162
410.762
400.981
390.867
380.397
369.545
358.681
347.962
337.117
326.119
316.316
307.291
298.485
289.804
281.095
272.468
264
255.708
247.565
239.424
231.426
223.691
216.157
208.818
201.697
194.833
188.248
181.936
175.895
170.131
164.64
159.419
154.462
149.763
145.308
141.105
137.097
133.402
129.698
126.736
122.937
122.045
121.652
17.4127
9.34772
8.19441
8.26662
8.85619
9.78681
10.9955
12.4475
14.1282
16.0073
17.9454
19.9366
22.0639
24.4692
27.3105
30.4395
33.924
37.3679
40.8117
44.2885
47.7592
51.2575
54.7993
58.3888
62.0289
65.7198
69.4635
73.2604
77.1131
81.0231
84.9962
89.0298
93.1244
97.2794
101.496
105.773
110.112
114.513
118.975
123.497
128.082
132.726
137.431
142.196
147.021
151.905
156.847
161.847
166.905
172.014
177.174
182.38
187.632
192.925
198.255
203.62
209.016
214.439
219.885
225.348
230.825
236.309
241.796
247.279
252.753
258.21
263.644
269.048
274.416
279.738
285.009
290.222
295.368
300.443
305.439
310.352
315.176
319.91
324.55
329.098
333.552
337.91
342.165
346.309
350.339
354.272
358.093
361.806
365.407
368.89
372.255
375.493
378.594
381.563
384.377
387.036
389.52
391.823
393.952
395.949
397.924
400.03
401.982
403.545
405.174
406.604
408.398
410.289
411.433
412.447
413.611
414.339
414.825
415.654
415.712
415.842
415.743
415.726
415.324
414.61
414.024
412.749
411.192
409.321
407.135
404.619
401.763
398.553
394.978
391.021
386.672
381.922
376.763
371.195
365.221
358.847
352.078
344.948
337.482
329.707
321.658
313.358
304.836
296.188
287.455
278.632
269.817
261.403
253.348
245.467
237.707
230.028
222.471
215.061
207.812
200.723
193.766
186.975
180.369
173.896
167.603
161.49
155.583
149.901
144.445
139.217
134.221
129.457
124.921
120.613
116.528
112.659
109.01
105.554
102.347
99.2589
96.6053
93.8748
92.0685
91.8613
25.8026
13.4527
11.4069
11.1802
11.6607
12.569
13.7943
15.2753
16.959
18.7805
20.7872
22.9348
25.237
27.7385
30.4824
33.4299
36.4719
39.577
42.7251
45.9157
49.1685
52.4769
55.8356
59.2451
62.7098
66.2283
69.7986
73.4196
77.0904
80.8059
84.5856
88.4275
92.3328
96.3014
100.334
104.429
108.589
112.812
117.098
121.446
125.858
130.332
134.867
139.464
144.123
148.841
153.619
158.456
163.35
168.299
173.302
178.356
183.46
188.612
193.809
199.048
204.325
209.638
214.982
220.354
225.749
231.162
236.587
242.019
247.452
252.879
258.293
263.686
269.052
274.381
279.667
284.901
290.075
295.182
300.214
305.164
310.027
314.797
319.47
324.042
328.507
332.861
337.097
341.207
345.19
349.045
352.766
356.351
359.796
363.098
366.254
369.261
372.116
374.816
377.357
379.737
381.954
384.012
385.925
387.721
389.435
391.08
392.581
393.904
395.135
396.275
397.42
398.468
399.248
399.885
400.437
400.862
401.123
401.189
400.865
400.56
400.142
399.625
398.861
397.882
396.743
395.261
393.511
391.486
389.175
386.562
383.635
380.379
376.78
372.824
368.501
363.802
358.721
353.259
347.418
341.203
334.625
327.694
320.452
312.928
305.155
297.161
288.977
280.651
272.231
263.769
255.352
247.133
239.121
231.261
223.536
215.943
208.5
201.219
194.111
187.181
180.428
173.865
167.504
161.332
155.357
149.541
143.906
138.47
133.236
128.21
123.397
118.799
114.414
110.244
106.284
102.533
98.9935
95.652
92.5344
89.5896
86.9572
84.4855
82.4773
81.6496
33.9222
17.6057
14.6464
14.0975
14.4145
15.2319
16.3959
17.8312
19.4907
21.3403
23.3636
25.5445
27.8781
30.3672
33.0109
35.7921
38.682
41.6587
44.7071
47.8198
50.9953
54.2307
57.524
60.8742
64.2806
67.7456
71.2725
74.8631
78.5197
82.2457
86.0416
89.9071
93.8425
97.8477
101.923
106.068
110.283
114.568
118.922
123.344
127.836
132.396
137.024
141.72
146.484
151.314
156.21
161.173
166.199
171.29
176.443
181.657
186.932
192.264
197.653
203.095
208.588
214.13
219.715
225.341
231.004
236.698
242.417
248.157
253.91
259.669
265.427
271.175
276.904
282.607
288.273
293.893
299.457
304.957
310.381
315.723
320.972
326.122
331.166
336.095
340.903
345.581
350.122
354.518
358.763
362.853
366.783
370.546
374.14
377.56
380.807
383.876
386.766
389.477
392.009
394.36
396.535
398.538
400.38
402.076
403.64
405.071
406.347
407.459
408.425
409.263
409.994
410.582
411.02
411.24
411.248
411.197
410.972
410.549
409.935
409.192
408.305
407.261
406.011
404.552
402.879
400.946
398.756
396.303
393.571
390.549
387.22
383.572
379.589
375.261
370.575
365.527
360.11
354.325
348.176
341.669
334.816
327.628
320.154
312.412
304.433
296.253
287.907
279.435
270.884
262.317
253.804
245.425
237.2
229.12
221.188
213.415
205.813
198.391
191.158
184.121
177.284
170.659
164.25
158.057
152.081
146.307
140.738
135.352
130.152
125.144
120.338
115.735
111.337
107.148
103.159
99.3795
95.811
92.4465
89.2982
86.3486
83.6638
81.2136
79.1048
77.7711
41.4048
21.5069
17.66
16.7803
16.9152
17.6196
18.6996
20.0652
21.6667
23.4721
25.4596
27.613
29.9203
32.3725
34.96
37.6704
40.4892
43.4029
46.4014
49.4774
52.627
55.8475
59.1377
62.4973
65.9269
69.428
73.0025
76.6523
80.3792
84.1845
88.0693
92.0335
96.0775
100.201
104.405
108.688
113.05
117.491
122.011
126.609
131.286
136.04
140.873
145.783
150.77
155.834
160.976
166.194
171.489
176.859
182.304
187.824
193.418
199.084
204.821
210.628
216.501
222.438
228.436
234.491
240.599
246.755
252.954
259.188
265.451
271.736
278.034
284.335
290.629
296.907
303.157
309.368
315.528
321.625
327.648
333.585
339.425
345.157
350.77
356.254
361.6
366.795
371.831
376.697
381.386
385.889
390.2
394.313
398.221
401.922
405.413
408.693
411.76
414.614
417.256
419.688
421.913
423.937
425.766
427.411
428.879
430.169
431.276
432.196
432.934
433.498
433.91
434.096
434.052
433.852
433.498
432.986
432.293
431.406
430.328
429.076
427.648
426.032
424.206
422.164
419.892
417.374
414.601
411.564
408.249
404.645
400.736
396.511
391.956
387.061
381.816
376.216
370.257
363.94
357.269
350.253
342.904
335.242
327.297
319.099
310.684
302.093
293.361
284.529
275.641
266.757
257.933
249.224
240.653
232.231
223.972
215.892
208.004
200.316
192.835
185.57
178.526
171.711
165.131
158.787
152.677
146.796
141.141
135.7
130.467
125.409
120.54
115.863
111.385
107.113
103.041
99.1829
95.5363
92.0988
88.8772
85.8675
83.1048
80.5969
78.3947
76.6928
47.9658
24.9587
20.2942
19.0927
19.0531
19.6422
20.6381
21.9336
23.4725
25.221
27.1561
29.2605
31.5206
33.9242
36.4607
39.1189
41.8887
44.7605
47.7271
50.7828
53.9241
57.1487
60.4557
63.845
67.3173
70.8738
74.5164
78.2464
82.0654
85.9745
89.9743
94.0651
98.2473
102.521
106.885
111.34
115.887
120.524
125.251
130.068
134.975
139.973
145.06
150.237
155.505
160.862
166.311
171.85
177.48
183.201
189.013
194.916
200.909
206.992
213.165
219.424
225.77
232.199
238.709
245.296
251.956
258.684
265.475
272.321
279.215
286.149
293.112
300.096
307.088
314.076
321.048
327.99
334.887
341.726
348.492
355.17
361.746
368.205
374.535
380.721
386.748
392.605
398.277
403.752
409.02
414.07
418.894
423.483
427.831
431.932
435.785
439.385
442.732
445.826
448.669
451.262
453.608
455.714
457.585
459.227
460.646
461.845
462.824
463.582
464.119
464.377
464.397
464.219
463.839
463.25
462.462
461.473
460.275
458.861
457.234
455.397
453.349
451.083
448.59
445.862
442.89
439.664
436.177
432.418
428.378
424.045
419.408
414.455
409.177
403.564
397.61
391.309
384.661
377.666
370.331
362.664
354.681
346.405
337.867
329.101
320.147
311.044
301.83
292.543
283.229
273.938
264.72
255.615
246.652
237.85
229.227
220.8
212.584
204.587
196.816
189.278
181.98
174.927
168.125
161.576
155.277
149.226
143.418
137.845
132.498
127.359
122.402
117.621
113.032
108.647
104.469
100.503
96.7522
93.2153
89.8969
86.799
83.9418
81.3423
79.0339
77.0583
53.4197
27.8634
22.4782
20.9686
20.7753
21.2592
22.1775
23.408
24.8875
26.5792
28.4588
30.5085
32.7144
35.0646
37.5485
40.1569
42.8814
45.7151
48.6526
51.6897
54.8238
58.0532
61.3771
64.7947
68.307
71.9154
75.6222
79.4293
83.3381
87.3496
91.4645
95.6829
100.005
104.431
108.961
113.595
118.333
123.174
128.12
133.169
138.322
143.579
148.941
154.407
159.979
165.657
171.441
177.334
183.334
189.443
195.662
201.991
208.43
214.98
221.639
228.408
235.284
242.267
249.354
256.541
263.825
271.2
278.661
286.2
293.811
301.482
309.204
316.966
324.754
332.555
340.353
348.133
355.878
363.571
371.194
378.729
386.159
393.465
400.629
407.636
414.467
421.104
427.529
433.729
439.689
445.397
450.842
456.014
460.903
465.505
469.814
473.825
477.538
480.951
484.067
486.887
489.414
491.654
493.612
495.292
496.702
497.846
498.727
499.329
499.608
499.574
499.319
498.814
498.058
497.052
495.799
494.3
492.552
490.553
488.303
485.804
483.055
480.054
476.798
473.28
469.497
465.443
461.112
456.498
451.593
446.39
440.882
435.059
428.915
422.445
415.645
408.511
401.045
393.251
385.136
376.713
368.003
359.031
349.831
340.438
330.893
321.234
311.497
301.721
291.947
282.22
272.584
263.074
253.717
244.536
235.551
226.781
218.239
209.933
201.87
194.057
186.498
179.2
172.166
165.398
158.895
152.654
146.669
140.935
135.441
130.176
125.117
120.221
115.511
111.003
106.706
102.624
98.7605
95.116
91.6939
88.4975
85.5395
82.8359
80.4123
78.2231
57.6951
30.1988
24.2023
22.4168
22.0829
22.4708
23.3175
24.4876
25.9115
27.5486
29.3732
31.3672
33.5168
35.8109
38.2399
40.7957
43.4716
46.2627
49.1653
52.1767
55.2958
58.5219
61.8554
65.29
68.8271
72.4677
76.2207
80.0882
84.0711
88.1699
92.3853
96.7174
101.167
105.733
110.416
115.217
120.136
125.175
130.332
135.609
141.005
146.522
152.159
157.918
163.801
169.808
175.94
182.199
188.586
195.103
201.75
208.53
215.442
222.488
229.668
236.981
244.428
252.007
259.716
267.551
275.51
283.587
291.776
300.071
308.462
316.939
325.492
334.106
342.768
351.462
360.17
368.874
377.556
386.194
394.767
403.254
411.633
419.882
427.98
435.905
443.635
451.148
458.425
465.448
472.198
478.66
484.82
490.664
496.183
501.367
506.211
510.709
514.857
518.656
522.106
525.209
527.967
530.386
532.469
534.223
535.654
536.77
537.567
537.985
538.041
537.8
537.258
536.416
535.27
533.824
532.077
530.033
527.689
525.048
522.108
518.874
515.345
511.522
507.405
502.994
498.286
493.283
487.98
482.377
476.469
470.256
463.732
456.896
449.746
442.28
434.498
426.404
418.001
409.298
400.308
391.049
381.544
371.823
361.919
351.869
341.71
331.48
321.213
310.946
300.716
290.563
280.524
270.63
260.907
251.378
242.064
232.983
224.146
215.561
207.234
199.17
191.374
183.85
176.6
169.627
162.93
156.505
150.348
144.45
138.805
133.4
128.216
123.207
118.377
113.75
109.336
105.141
101.168
97.4181
93.8938
90.5986
87.5403
84.7313
82.1911
79.8284
60.8298
31.9562
25.4742
23.4553
22.9966
23.2982
24.0787
25.1921
26.5627
28.1468
29.9167
31.8542
33.9461
36.1824
38.5551
41.0532
43.6728
46.4113
49.2671
52.2391
55.3272
58.532
61.8549
65.2848
68.8268
72.4813
76.2635
80.172
84.2083
88.3733
92.668
97.0931
101.649
106.336
111.153
116.097
121.179
126.399
131.754
137.245
142.873
148.639
154.545
160.592
166.782
173.118
179.6
186.231
193.013
199.948
207.037
214.283
221.687
229.25
236.974
244.86
252.906
261.113
269.478
278
286.674
295.497
304.461
313.559
322.783
332.121
341.56
351.087
360.685
370.337
380.023
389.721
399.41
409.066
418.664
428.179
437.585
446.856
455.966
464.888
473.596
482.065
490.271
498.192
505.807
513.096
520.042
526.629
532.843
538.675
544.114
549.155
553.794
558.028
561.858
565.285
568.313
570.944
573.183
575.035
576.509
577.612
578.316
578.593
578.476
578.006
577.175
575.984
574.433
572.521
570.251
567.624
564.641
561.302
557.612
553.571
549.184
544.453
539.381
533.971
528.227
522.153
515.751
509.025
501.977
494.61
486.929
478.938
470.639
462.04
453.147
443.97
434.52
424.813
414.869
404.709
394.358
383.848
373.214
362.491
351.715
340.924
330.144
319.409
308.752
298.208
287.809
277.579
267.543
257.719
248.131
238.794
229.718
220.907
212.366
204.099
196.11
188.399
180.97
173.825
166.964
160.381
154.073
148.031
142.246
136.709
131.402
126.278
121.337
116.603
112.085
107.79
103.719
99.8732
96.2556
92.8685
89.7163
86.8076
84.1563
81.6506
62.8948
33.166
26.3266
24.1204
23.5541
23.7788
24.4973
25.556
26.8746
28.4065
30.1201
31.9974
34.0271
36.2014
38.517
40.9572
43.5204
46.2043
49.008
51.9309
54.9733
58.1356
61.4179
64.8221
68.351
72.0075
75.7951
79.7178
83.7784
87.9792
92.3225
96.8098
101.443
106.222
111.148
116.22
121.453
126.84
132.38
138.069
143.915
149.919
156.085
162.415
168.91
175.574
182.409
189.417
196.602
203.965
211.509
219.237
227.151
235.253
243.544
252.027
260.701
269.565
278.62
287.863
297.29
306.896
316.676
326.621
336.722
346.966
357.341
367.83
378.416
389.077
399.793
410.54
421.292
432.021
442.7
453.3
463.789
474.137
484.314
494.288
504.029
513.508
522.696
531.567
540.096
548.259
556.037
563.409
570.361
576.877
582.948
588.567
593.726
598.424
602.659
606.434
609.749
612.608
615.016
616.977
618.499
619.585
620.206
620.361
620.074
619.362
618.229
616.671
614.69
612.285
609.457
606.206
602.535
598.445
593.94
589.023
583.699
577.972
571.851
565.34
558.45
551.187
543.561
535.58
527.256
518.597
509.618
500.329
490.746
480.882
470.756
460.385
449.79
438.996
428.029
416.913
405.676
394.351
382.973
371.576
360.197
348.871
337.615
326.456
315.425
304.549
293.854
283.359
273.081
263.036
253.249
243.733
234.491
225.526
216.841
208.437
200.315
192.476
184.921
177.653
170.672
163.974
157.551
151.396
145.501
139.854
134.436
129.208
124.176
119.355
114.755
110.378
106.228
102.304
98.6076
95.1413
91.9067
88.9093
86.1578
83.5358
63.9491
33.8712
26.8032
24.4589
23.8053
23.9609
24.6185
25.6209
26.8866
28.3702
30.0324
31.8557
33.8264
35.9339
38.1681
40.5253
43.0056
45.6084
48.3337
51.1821
54.1548
57.2537
60.4817
63.8417
67.3372
70.9718
74.7491
78.6725
82.746
86.973
91.3567
95.8999
100.605
105.474
110.509
115.707
121.074
126.611
132.323
138.206
144.272
150.512
156.937
163.551
170.357
177.358
184.557
191.957
199.561
207.373
215.395
223.63
232.081
240.751
249.642
258.755
268.091
277.651
287.433
297.435
307.655
318.086
328.723
339.557
350.577
361.771
373.123
384.616
396.229
407.942
419.728
431.561
443.413
455.252
467.046
478.762
490.365
501.819
513.091
524.143
534.942
545.452
555.643
565.481
574.94
583.991
592.611
600.777
608.472
615.679
622.386
628.582
634.262
639.42
644.056
648.171
651.766
654.844
657.41
659.468
661.021
662.071
662.606
662.629
662.143
661.164
659.696
657.74
655.292
652.353
648.921
644.998
640.583
635.681
630.293
624.424
618.082
611.272
604.005
596.29
588.142
579.573
570.599
561.235
551.502
541.417
531.003
520.286
509.29
498.042
486.573
474.911
463.085
451.131
439.084
426.971
414.82
402.666
390.545
378.489
366.536
354.713
343.027
331.504
320.169
309.044
298.144
287.48
277.06
266.888
256.997
247.394
238.08
229.051
220.307
211.846
203.669
195.774
188.158
180.831
173.79
167.028
160.54
154.316
148.348
142.624
137.121
131.817
126.722
121.845
117.19
112.759
108.553
104.573
100.818
97.2903
93.9896
90.9189
88.0825
85.3692
63.9278
34.0517
26.9226
24.506
23.7955
23.9036
24.5146
25.4682
26.6782
28.0911
29.6791
31.4237
33.3118
35.3332
37.4838
39.7616
42.1635
44.6886
47.3377
50.1125
53.0153
56.0493
59.2182
62.5262
65.9777
69.5773
73.3297
77.2398
81.3122
85.5515
89.9622
94.548
99.3127
104.26
109.392
114.713
120.229
125.942
131.852
137.958
144.256
150.752
157.457
164.378
171.52
178.886
186.481
194.309
202.371
210.672
219.215
228.003
237.039
246.326
255.866
265.661
275.712
286.019
296.58
307.394
318.456
329.762
341.304
353.073
365.056
377.24
389.608
402.14
414.813
427.604
440.485
453.424
466.391
479.35
492.266
505.1
517.815
530.369
542.724
554.841
566.679
578.2
589.368
600.147
610.506
620.413
629.841
638.766
647.167
655.025
662.326
669.059
675.216
680.792
685.785
690.196
694.027
697.28
699.959
702.069
703.614
704.593
705.005
704.849
704.104
702.801
700.946
698.536
695.564
692.03
687.93
683.266
678.037
672.245
665.893
658.987
651.534
643.544
635.027
626
616.479
606.485
596.039
585.168
573.897
562.26
550.289
538.026
525.504
512.767
499.859
486.824
473.697
460.524
447.331
434.132
421.001
407.982
395.109
382.414
369.937
357.716
345.723
333.955
322.432
311.169
300.173
289.449
278.995
268.802
258.931
249.368
240.1
231.122
222.43
214.018
205.885
198.025
190.432
183.119
176.087
169.327
162.833
156.593
150.6
144.839
139.289
133.955
128.838
123.942
119.266
114.812
110.58
106.57
102.781
99.2144
95.8677
92.7429
89.8403
87.0607
63.409
33.9337
26.8258
24.3733
23.6057
23.6516
24.1957
25.0791
26.2169
27.5621
29.0828
30.758
32.5748
34.5243
36.6015
38.8035
41.1293
43.5794
46.1555
48.8602
51.6971
54.6705
57.7851
61.0464
64.4599
68.0316
71.7675
75.6737
79.7566
84.0223
88.4767
93.1246
97.9707
103.02
108.277
113.747
119.437
125.353
131.491
137.85
144.434
151.24
158.279
165.562
173.098
180.893
188.952
197.277
205.871
214.739
223.881
233.302
243.005
252.99
263.262
273.82
284.664
295.796
307.211
318.908
330.883
343.127
355.632
368.389
381.382
394.597
408.013
421.609
435.361
449.239
463.215
477.253
491.319
505.374
519.378
533.29
547.067
560.665
574.041
587.152
599.954
612.406
624.467
636.099
647.266
657.935
668.076
677.663
686.672
695.084
702.882
710.054
716.591
722.488
727.743
732.357
736.331
739.669
742.374
744.451
745.905
746.736
746.94
746.519
745.42
743.713
741.386
738.434
734.85
730.63
725.772
720.272
714.13
707.349
699.931
691.881
683.208
673.925
664.044
653.588
642.576
631.036
618.999
606.501
593.578
580.274
566.632
552.721
538.579
524.264
509.802
495.228
480.65
466.146
451.803
437.687
423.756
410.045
396.587
383.409
370.544
358.053
345.807
333.867
322.244
310.942
299.96
289.292
278.924
268.821
259.064
249.621
240.478
231.627
223.06
214.771
206.754
199.002
191.496
184.285
177.347
170.667
164.237
158.045
152.084
146.34
140.809
135.499
130.409
125.536
120.88
116.439
112.215
108.206
104.411
100.83
97.4613
94.3047
91.3576
88.5369
62.1769
33.5156
26.4974
24.0196
23.2029
23.2052
23.7015
24.5325
25.6151
26.9011
28.3603
29.9731
31.7267
33.6134
35.6282
37.7691
40.0358
42.4296
44.9536
47.6116
50.4079
53.3478
56.4372
59.6827
63.0915
66.6709
70.4287
74.3726
78.5109
82.8522
87.4075
92.1767
97.1657
102.382
107.831
113.521
119.456
125.641
132.067
138.748
145.691
152.906
160.397
168.17
176.231
184.582
193.232
202.184
211.443
221.009
230.885
241.073
251.573
262.388
273.518
284.963
296.721
308.79
321.167
333.847
346.823
360.086
373.625
387.427
401.477
415.755
430.24
444.906
459.726
474.669
489.7
504.784
519.881
534.95
549.948
564.83
579.55
594.062
608.32
622.276
635.886
649.105
661.89
674.202
686.002
697.256
707.932
718.002
727.442
736.232
744.354
751.794
758.544
764.598
769.954
774.614
778.578
781.851
784.437
786.342
787.571
788.122
787.992
787.14
785.575
783.336
780.411
776.79
772.468
767.435
761.69
755.227
748.046
740.146
731.533
722.209
712.189
701.481
690.11
678.096
665.469
652.259
638.51
624.274
609.59
594.518
579.095
563.326
547.354
531.281
515.25
499.36
483.583
468.002
452.752
437.671
422.892
408.464
394.421
380.784
367.569
354.786
342.407
330.43
318.85
307.658
296.839
286.378
276.254
266.447
256.964
247.792
238.918
230.33
222.018
213.972
206.186
198.65
191.34
184.298
177.509
170.959
164.645
158.547
152.671
147.012
141.565
136.342
131.335
126.538
121.947
117.56
113.379
109.405
105.636
102.07
98.7045
95.5408
92.5727
89.7369
60.0119
32.5884
25.8524
23.4549
22.6496
22.6367
23.0999
23.8911
24.9313
26.1741
27.5911
29.1641
30.8812
32.7348
34.7211
36.8386
39.0883
41.4726
43.9967
46.6681
49.4882
52.4623
55.5982
58.9045
62.3903
66.0648
69.9376
74.0183
78.3167
82.8415
87.6003
92.5904
97.8273
103.322
109.084
115.122
121.445
128.061
134.977
142.198
149.727
157.572
165.738
174.228
183.047
192.197
201.682
211.504
221.667
232.173
243.019
254.207
265.736
277.603
289.808
302.346
315.213
328.403
341.91
355.724
369.836
384.233
398.902
413.824
428.982
444.351
459.908
475.624
491.467
507.404
523.397
539.409
555.397
571.318
587.127
602.777
618.222
633.414
648.305
662.848
676.997
690.707
703.934
716.639
728.783
740.332
751.254
761.52
771.108
779.996
788.166
795.605
802.303
808.256
813.46
817.919
821.633
824.608
826.848
828.361
829.155
829.206
828.517
827.027
824.802
821.834
818.111
813.624
808.363
802.321
795.491
787.869
779.452
770.241
760.238
749.451
737.892
725.576
712.527
698.781
684.37
669.327
653.698
637.438
620.699
603.584
586.234
568.802
551.266
533.733
516.387
499.059
481.939
465.13
448.714
432.71
417.171
402.14
387.643
373.693
360.291
347.432
335.093
323.254
311.894
300.987
290.507
280.425
270.71
261.336
252.284
243.539
235.083
226.9
218.978
211.304
203.869
196.665
189.678
182.917
176.381
170.05
163.934
158.027
152.328
146.836
141.538
136.452
131.57
126.887
122.399
118.103
114.007
110.106
106.396
102.876
99.544
96.3993
93.4352
90.6102
57.3564
31.4673
25.0681
22.796
22.0412
22.0477
22.5139
23.308
24.352
25.6028
27.0353
28.636
30.39
32.2904
34.3347
36.5229
38.8571
41.3408
43.9784
46.7739
49.7261
52.8494
56.1551
59.6541
63.3578
67.2778
71.4261
75.8145
80.4551
85.3599
90.5417
96.0145
101.785
107.863
114.257
120.978
128.033
135.433
143.184
151.293
159.763
168.598
177.801
187.374
197.32
207.639
218.328
229.382
240.798
252.575
264.712
277.204
290.046
303.233
316.756
330.608
344.778
359.254
374.025
389.077
404.394
419.959
435.753
451.754
467.94
484.283
500.755
517.326
533.96
550.623
567.277
583.882
600.397
616.78
632.987
648.973
664.692
680.1
695.149
709.796
723.997
737.709
750.892
763.507
775.518
786.892
797.601
807.617
816.917
825.483
833.295
840.342
846.612
852.101
856.806
860.73
863.874
866.243
867.845
868.69
868.752
868.058
866.512
864.18
861.052
857.12
852.37
846.792
840.374
833.107
824.982
815.994
806.14
795.423
783.843
771.408
758.139
744.05
729.163
713.47
697.009
679.874
662.129
644.015
625.49
606.66
587.716
568.512
549.251
530.067
511.081
492.352
473.99
456.094
438.746
421.996
405.889
390.46
375.725
361.685
348.326
335.627
323.553
312.07
301.141
290.724
280.78
271.264
262.138
253.361
244.903
236.74
228.851
221.216
213.818
206.64
199.675
192.915
186.342
179.959
173.772
167.775
161.967
156.349
150.919
145.675
140.613
135.737
131.045
126.534
122.201
118.041
114.064
110.265
106.644
103.199
99.9266
96.8295
93.8975
91.112
54.5569
30.2371
24.2393
22.1441
21.4931
21.5764
22.1129
22.9866
24.1179
25.4652
27.0047
28.7186
30.593
32.6309
34.8336
37.2036
39.7447
42.4626
45.3648
48.4607
51.7608
55.2729
59.0083
62.9793
67.1994
71.6823
76.4421
81.493
86.849
92.5235
98.5301
104.882
111.591
118.668
126.12
133.958
142.189
150.821
159.86
169.307
179.166
189.437
200.113
211.188
222.656
234.509
246.743
259.352
272.327
285.66
299.341
313.361
327.707
342.366
357.324
372.565
388.071
403.826
419.81
436.003
452.384
468.931
485.621
502.427
519.325
536.283
553.274
570.263
587.217
604.103
620.885
637.526
653.992
670.243
686.241
701.947
717.321
732.323
746.913
761.052
774.703
787.826
800.387
812.351
823.686
834.363
844.355
853.639
862.194
870.001
877.042
883.304
888.776
893.451
897.327
900.405
902.687
904.172
904.881
904.792
903.926
902.197
899.648
896.27
892.049
886.973
881.027
874.197
866.468
857.83
848.275
837.793
826.384
814.053
800.796
786.619
771.471
755.423
738.53