/*--------------------------------*- C++ -*----------------------------------*\
  =========                 |
  \\      /  F ield         | OpenFOAM: The Open Source CFD Toolbox
   \\    /   O peration     | Website:  https://openfoam.org
    \\  /    A nd           | Version:  13
     \\/     M anipulation  |
\*---------------------------------------------------------------------------*/
FoamFile
{
    format      ascii;
    class       volScalarField;
    location    "100";
    object      k;
}
// * * * * * * * * * * * * * * * * * * * * * * * * * * * * * * * * * * * * * //

dimensions      [0 2 -2 0 0 0 0];

internalField   nonuniform List<scalar> 
12225
(
0.355017
0.319269
0.2904
0.265947
0.246003
0.229192
0.215493
0.204743
0.195939
0.189697
0.185358
0.182591
0.182498
0.183337
0.185819
0.188769
0.197195
0.196147
0.371673
0.35968
0.348217
0.337758
0.331309
0.326476
0.326876
0.328841
0.334196
0.343541
0.353911
0.369952
0.385917
0.406642
0.428375
0.452029
0.479113
0.503727
0.373606
0.368478
0.362277
0.355558
0.350146
0.344903
0.341643
0.339126
0.33877
0.339422
0.341539
0.345299
0.350259
0.357397
0.364605
0.37378
0.382268
0.393811
0.373979
0.370769
0.366973
0.362478
0.358333
0.354056
0.350474
0.347163
0.344634
0.342666
0.341402
0.340799
0.340948
0.341531
0.342626
0.344743
0.346513
0.349759
0.373985
0.371477
0.368736
0.365512
0.362333
0.359015
0.355903
0.352877
0.350147
0.347685
0.345538
0.3437
0.342231
0.341098
0.34016
0.339668
0.339256
0.339284
0.373914
0.371647
0.36936
0.366828
0.364274
0.361624
0.359034
0.356468
0.354022
0.351688
0.349525
0.347496
0.345658
0.343996
0.342503
0.341192
0.340055
0.339044
0.373868
0.37164
0.369514
0.367323
0.365137
0.362915
0.360719
0.358534
0.356411
0.354339
0.352365
0.350464
0.348678
0.346978
0.345412
0.34391
0.342582
0.341249
0.373847
0.371607
0.369506
0.367449
0.365446
0.363466
0.361523
0.359605
0.357736
0.355904
0.354138
0.352419
0.350782
0.349192
0.347705
0.346244
0.344923
0.343578
0.373838
0.371585
0.369469
0.367446
0.365512
0.363641
0.361835
0.360074
0.358371
0.356709
0.355107
0.353546
0.352054
0.350596
0.34922
0.347863
0.346613
0.345345
0.373833
0.371573
0.369442
0.367418
0.365498
0.363663
0.361912
0.360227
0.358611
0.357049
0.355551
0.354099
0.35271
0.351359
0.350078
0.34882
0.347646
0.346471
0.37383
0.371566
0.369425
0.367395
0.365472
0.363643
0.361906
0.360247
0.358666
0.35715
0.355704
0.354312
0.352984
0.351701
0.350481
0.349295
0.348176
0.347077
0.373829
0.371561
0.369416
0.367381
0.365453
0.363621
0.361884
0.360229
0.358657
0.357155
0.355726
0.354358
0.353054
0.351803
0.350611
0.349464
0.348373
0.347317
0.373827
0.371558
0.369409
0.367372
0.365439
0.363604
0.361863
0.360208
0.358635
0.357137
0.355711
0.354352
0.353057
0.351819
0.35064
0.349511
0.348434
0.347401
0.373827
0.371556
0.369404
0.367364
0.365428
0.36359
0.361846
0.360188
0.358612
0.357112
0.355685
0.354327
0.353032
0.351798
0.350622
0.349499
0.348428
0.347404
0.373826
0.371554
0.3694
0.367357
0.365419
0.363579
0.361832
0.360171
0.358592
0.35709
0.355661
0.3543
0.353003
0.351768
0.350591
0.349468
0.348396
0.347374
0.373826
0.371552
0.369397
0.367352
0.365412
0.36357
0.36182
0.360158
0.358576
0.357072
0.35564
0.354277
0.352978
0.351741
0.350561
0.349436
0.348363
0.347339
0.373825
0.371551
0.369394
0.367349
0.365407
0.363564
0.361812
0.360147
0.358564
0.357058
0.355624
0.354259
0.352959
0.351719
0.350538
0.349411
0.348336
0.34731
0.373825
0.371551
0.369393
0.367347
0.365404
0.363559
0.361807
0.360141
0.358556
0.357048
0.355613
0.354247
0.352945
0.351704
0.350521
0.349393
0.348317
0.34729
0.373825
0.37155
0.369393
0.367346
0.365403
0.363558
0.361805
0.360138
0.358553
0.357044
0.355609
0.354241
0.352938
0.351696
0.350513
0.349384
0.348307
0.347279
0.373825
0.371551
0.369394
0.367348
0.365406
0.363561
0.361808
0.360141
0.358557
0.357048
0.355613
0.354245
0.352943
0.3517
0.350517
0.349388
0.348311
0.347283
0.373826
0.371552
0.369396
0.367352
0.36541
0.363567
0.361815
0.36015
0.358565
0.357058
0.355623
0.354256
0.352954
0.351713
0.350528
0.3494
0.348322
0.347294
0.373826
0.371554
0.3694
0.367358
0.365418
0.363577
0.361827
0.360163
0.35858
0.357073
0.355637
0.354269
0.352964
0.351719
0.350531
0.349397
0.348312
0.347277
0.373827
0.371558
0.369407
0.367368
0.365432
0.363592
0.361842
0.360176
0.358586
0.357069
0.355619
0.354234
0.352907
0.351638
0.350421
0.349258
0.34814
0.347073
0.373829
0.371564
0.369421
0.367386
0.365446
0.363595
0.36182
0.360118
0.358479
0.356904
0.355384
0.353923
0.352513
0.35116
0.349852
0.348602
0.34739
0.346239
0.373832
0.371582
0.369443
0.367385
0.365385
0.36344
0.361538
0.359686
0.357875
0.35612
0.354411
0.352763
0.351164
0.349633
0.34815
0.346742
0.345374
0.344093
0.373851
0.371611
0.369395
0.367151
0.364885
0.362619
0.360358
0.358141
0.355958
0.353858
0.351815
0.349873
0.348
0.34624
0.344557
0.342992
0.341499
0.340139
0.37392
0.371504
0.368848
0.365964
0.363009
0.360024
0.357079
0.354233
0.351494
0.348953
0.346532
0.34437
0.342332
0.340554
0.338899
0.337469
0.336215
0.33514
0.373947
0.37052
0.36646
0.362039
0.357706
0.353465
0.349605
0.346031
0.342911
0.340219
0.337916
0.336216
0.334726
0.333895
0.333188
0.333178
0.333337
0.333753
0.373087
0.365596
0.357831
0.350216
0.343608
0.337751
0.333296
0.329581
0.327427
0.325739
0.325753
0.326273
0.327361
0.329684
0.332305
0.336022
0.339849
0.344621
0.363251
0.341497
0.322962
0.30671
0.292545
0.279963
0.268935
0.259152
0.250554
0.24304
0.236373
0.230768
0.225714
0.221591
0.217913
0.215016
0.212512
0.210625
0.0146249
0.0389925
0.0576432
0.074191
0.0893031
0.102538
0.113245
0.120675
0.124154
0.12338
0.129457
0.138259
0.146607
0.152529
0.154228
0.151566
0.138925
0.158249
0.173056
0.189004
0.204938
0.220977
0.237057
0.253105
0.269152
0.285138
0.301123
0.317045
0.332962
0.348807
0.364644
0.380407
0.396163
0.411847
0.427525
0.443134
0.458742
0.474285
0.489832
0.50532
0.520816
0.536258
0.551709
0.56711
0.582519
0.597877
0.613242
0.62856
0.643885
0.659172
0.674468
0.689726
0.704974
0.720159
0.735309
0.750387
0.765419
0.780362
0.795233
0.809996
0.824661
0.839198
0.853608
0.867869
0.881971
0.895905
0.909649
0.923204
0.936538
0.949659
0.962524
0.975152
0.987491
0.999582
1.01136
1.02287
1.03405
1.04495
1.05552
1.06585
1.07588
1.08575
1.09537
1.10474
1.11369
1.12272
1.13137
1.13997
1.1484
1.15668
1.16488
1.17292
1.18074
1.18851
1.19595
1.20315
1.20981
1.21551
1.21929
1.21811
1.22393
1.23783
1.23794
1.24311
1.25716
1.26006
1.26598
1.26664
1.27992
1.28019
1.28205
1.27874
1.28043
1.28324
1.28479
1.28682
1.28818
1.2918
1.28693
1.28577
1.28613
1.28744
1.28199
1.27704
1.27072
1.2636
1.25547
1.24642
1.23639
1.22541
1.21332
1.20021
1.18604
1.17088
1.15472
1.13765
1.11951
1.10038
1.08046
1.05967
1.03814
1.01594
0.992538
0.968252
0.944223
0.920769
0.896673
0.873092
0.856415
0.841611
0.827067
0.812557
0.797614
0.782452
0.767329
0.752277
0.737107
0.721982
0.707192
0.692954
0.678685
0.664554
0.650725
0.637308
0.624298
0.611669
0.599458
0.587676
0.57632
0.565386
0.554868
0.544737
0.534984
0.525468
0.51641
0.506869
0.498807
0.486882
0.480899
0.453819
0.0328573
0.0713349
0.0965303
0.115841
0.132402
0.147344
0.16084
0.172878
0.184165
0.197034
0.211107
0.225129
0.239084
0.253762
0.270309
0.28945
0.311767
0.339071
0.366963
0.395544
0.424649
0.454062
0.483644
0.513296
0.542976
0.572638
0.602303
0.631973
0.661658
0.691336
0.721017
0.750686
0.780358
0.810018
0.839681
0.869333
0.898992
0.928645
0.958311
0.987977
1.01766
1.04736
1.07707
1.1068
1.13655
1.16632
1.19611
1.22592
1.25575
1.28559
1.31545
1.34532
1.37521
1.40506
1.43487
1.46463
1.49432
1.52391
1.55339
1.58273
1.61191
1.64089
1.66964
1.69814
1.72635
1.75424
1.78178
1.80893
1.83567
1.86198
1.88782
1.91314
1.93788
1.96203
1.98553
2.00839
2.03057
2.05207
2.07287
2.09299
2.11244
2.13124
2.14942
2.16699
2.18389
2.20026
2.21607
2.2314
2.24627
2.26074
2.27482
2.28854
2.30187
2.31488
2.32753
2.33984
2.35178
2.36328
2.37434
2.38507
2.3965
2.40776
2.41769
2.4287
2.43944
2.44863
2.45682
2.46443
2.47339
2.48034
2.48679
2.49278
2.49915
2.50391
2.50656
2.51492
2.51686
2.5233
2.52287
2.52455
2.52806
2.52716
2.52673
2.52356
2.519
2.51294
2.5053
2.49602
2.48505
2.47241
2.45782
2.44115
2.42236
2.40143
2.37836
2.35316
2.32585
2.29645
2.26498
2.23158
2.19634
2.1594
2.12068
2.08044
2.03947
1.99785
1.95578
1.91267
1.86981
1.82674
1.7835
1.74003
1.69657
1.65337
1.61065
1.5685
1.52623
1.48463
1.44401
1.40454
1.36598
1.32825
1.29162
1.25623
1.22203
1.18895
1.15709
1.12644
1.097
1.06874
1.04165
1.01568
0.990784
0.966876
0.943998
0.921647
0.901119
0.878332
0.864106
0.821916
0.0599952
0.111623
0.142322
0.165983
0.186766
0.206249
0.2252
0.244144
0.263661
0.284296
0.305866
0.328261
0.351726
0.376758
0.403846
0.433214
0.464791
0.498428
0.533198
0.568664
0.604604
0.640844
0.677286
0.713866
0.750553
0.787325
0.824184
0.861122
0.898142
0.935233
0.972394
1.00962
1.04691
1.08425
1.12166
1.15913
1.19665
1.23423
1.27188
1.30958
1.34734
1.38516
1.42304
1.46098
1.49899
1.53705
1.57518
1.61336
1.6516
1.68988
1.7282
1.76655
1.80493
1.84331
1.88167
1.91999
1.95826
1.99644
2.03451
2.07245
2.11021
2.14777
2.18509
2.22213
2.25885
2.2952
2.33115
2.36664
2.40163
2.43609
2.46995
2.50317
2.5357
2.5675
2.59852
2.62872
2.65808
2.68657
2.71417
2.74087
2.76667
2.79158
2.8156
2.83872
2.86092
2.88226
2.90276
2.92244
2.94134
2.95948
2.97689
2.9936
3.00959
3.02493
3.0396
3.05364
3.06704
3.07984
3.09206
3.10378
3.11515
3.12601
3.13643
3.14663
3.15606
3.1647
3.1725
3.18025
3.18765
3.1942
3.20004
3.20561
3.21096
3.21513
3.21867
3.22277
3.22485
3.22613
3.22551
3.22525
3.22411
3.22105
3.21687
3.21077
3.20295
3.1933
3.18172
3.16808
3.15227
3.1342
3.11372
3.09072
3.06513
3.03693
3.00609
2.97262
2.93656
2.89797
2.85692
2.81354
2.76796
2.72034
2.67082
2.6195
2.56671
2.51282
2.45843
2.40357
2.34861
2.29345
2.23819
2.18297
2.12796
2.07335
2.01933
1.96605
1.91347
1.86186
1.81142
1.76228
1.71423
1.667
1.62109
1.5767
1.53371
1.49204
1.45183
1.41313
1.37588
1.34008
1.30573
1.27278
1.24119
1.21088
1.18188
1.1539
1.12775
1.10102
1.082
1.04603
0.0887942
0.151666
0.188939
0.217446
0.242369
0.265792
0.288805
0.31208
0.336111
0.361248
0.387634
0.415385
0.444687
0.475757
0.508756
0.543692
0.580407
0.618592
0.657827
0.697784
0.738259
0.779127
0.820308
0.861743
0.903402
0.94526
0.987308
1.02953
1.07192
1.11447
1.15718
1.20003
1.24302
1.28616
1.32942
1.37281
1.41633
1.45997
1.50373
1.5476
1.59159
1.63569
1.6799
1.72422
1.76865
1.81318
1.85782
1.90255
1.94738
1.9923
2.03729
2.08236
2.12749
2.17266
2.21785
2.26305
2.30823
2.35336
2.39841
2.44337
2.48817
2.5328
2.57721
2.62135
2.66517
2.70863
2.75166
2.79423
2.83626
2.87769
2.91848
2.95856
2.99787
3.03635
3.07395
3.1106
3.14627
3.18092
3.2145
3.24699
3.27838
3.30865
3.33777
3.36573
3.39253
3.41818
3.44268
3.46606
3.48833
3.50952
3.52965
3.54874
3.56681
3.58389
3.6
3.61518
3.62943
3.64281
3.65534
3.66708
3.67809
3.68838
3.698
3.70693
3.71503
3.72233
3.72885
3.73486
3.74021
3.74484
3.74861
3.7517
3.75438
3.75623
3.75683
3.75648
3.75529
3.75315
3.74992
3.74584
3.74048
3.73357
3.72513
3.71488
3.70277
3.68866
3.67242
3.65391
3.63302
3.6096
3.58353
3.55471
3.52306
3.48853
3.4511
3.41078
3.36761
3.32168
3.27306
3.2219
3.16835
3.11259
3.05475
2.99503
2.93375
2.87137
2.8084
2.74506
2.68151
2.61782
2.55418
2.49077
2.42779
2.36537
2.30368
2.24289
2.18309
2.12447
2.06716
2.01131
1.95687
1.90379
1.85224
1.80234
1.75394
1.70681
1.6613
1.61746
1.57515
1.53445
1.49535
1.4578
1.42178
1.38724
1.3542
1.32254
1.29274
1.26365
1.24028
1.20886
0.116616
0.189462
0.233098
0.266329
0.295095
0.321886
0.348053
0.374422
0.401561
0.429872
0.459621
0.490986
0.524091
0.559011
0.59575
0.634214
0.674227
0.715541
0.757898
0.801074
0.844908
0.889281
0.934112
0.97934
1.02493
1.07084
1.11705
1.16356
1.21034
1.25738
1.30467
1.35221
1.39999
1.448
1.49622
1.54466
1.5933
1.64213
1.69116
1.74036
1.78975
1.83931
1.88904
1.93895
1.98901
2.03924
2.08963
2.14018
2.19087
2.24171
2.29269
2.34379
2.39502
2.44635
2.49776
2.54924
2.60077
2.6523
2.70383
2.75531
2.8067
2.85796
2.90905
2.95991
3.01049
3.06074
3.11058
3.15995
3.20879
3.25703
3.30458
3.35138
3.39735
3.44241
3.4865
3.52954
3.57147
3.61222
3.65175
3.69
3.72693
3.7625
3.79669
3.82946
3.86078
3.89066
3.91909
3.94606
3.97159
3.9957
4.01841
4.03972
4.05968
4.0783
4.09561
4.11166
4.12647
4.14007
4.15253
4.16388
4.17417
4.18344
4.19173
4.19902
4.20528
4.21059
4.21492
4.21833
4.22086
4.22269
4.22325
4.2226
4.22135
4.21917
4.21582
4.21153
4.20615
4.19971
4.19209
4.18329
4.17309
4.16134
4.14794
4.13272
4.11557
4.09635
4.07491
4.05112
4.02483
3.99592
3.96426
3.92974
3.89229
3.85184
3.80836
3.76187
3.71241
3.66005
3.60489
3.54708
3.48678
3.4242
3.35955
3.29306
3.22505
3.15597
3.08625
3.01616
2.94588
2.87555
2.80538
2.73559
2.66638
2.59787
2.53023
2.46362
2.39818
2.33408
2.27144
2.21037
2.1509
2.09304
2.03687
1.98247
1.92982
1.87883
1.82961
1.78218
1.7362
1.69192
1.64934
1.60837
1.56905
1.53134
1.49526
1.46081
1.4283
1.39729
1.3708
1.33838
0.142226
0.223144
0.272406
0.309918
0.342184
0.371988
0.400873
0.429796
0.459412
0.490177
0.522406
0.556291
0.591937
0.629368
0.668539
0.70934
0.751613
0.795171
0.839828
0.885414
0.931797
0.978868
1.02655
1.07477
1.1235
1.1727
1.22234
1.2724
1.32285
1.37369
1.42491
1.47648
1.52839
1.58064
1.6332
1.68607
1.73923
1.79267
1.84639
1.90037
1.95461
2.0091
2.06384
2.11882
2.17403
2.22948
2.28517
2.34108
2.39722
2.45357
2.51015
2.56692
2.6239
2.68106
2.7384
2.79588
2.85349
2.9112
2.96899
3.02681
3.08463
3.1424
3.20007
3.25758
3.31488
3.3719
3.42856
3.48479
3.54051
3.59563
3.65007
3.70373
3.75653
3.80836
3.85914
3.90877
3.95718
4.00427
4.04996
4.0942
4.1369
4.17802
4.21748
4.25526
4.29131
4.32559
4.3581
4.38881
4.41773
4.44486
4.47022
4.49381
4.51567
4.53582
4.5543
4.57114
4.58638
4.60006
4.61224
4.62296
4.63227
4.64022
4.64683
4.65212
4.65608
4.65893
4.66046
4.66059
4.6594
4.65727
4.65382
4.6492
4.6435
4.63665
4.62858
4.61933
4.60887
4.59717
4.58418
4.56983
4.55399
4.53657
4.51744
4.49649
4.47358
4.44859
4.42137
4.3918
4.35973
4.32503
4.28758
4.24727
4.20402
4.15777
4.10848
4.05616
4.00084
3.94258
3.88152
3.8178
3.75162
3.68324
3.61286
3.54075
3.46722
3.39268
3.31751
3.24199
3.16631
3.09067
3.01529
2.9404
2.8662
2.79282
2.72043
2.64917
2.57921
2.51069
2.44375
2.37848
2.31495
2.25318
2.19324
2.13516
2.07896
2.02461
1.97218
1.92167
1.87294
1.82605
1.78089
1.73733
1.69548
1.65531
1.61688
1.58022
1.54558
1.51289
1.48395
1.45086
0.164681
0.251712
0.305662
0.34687
0.382245
0.414761
0.446076
0.477229
0.508927
0.541666
0.575784
0.611491
0.648894
0.688017
0.728817
0.7712
0.815041
0.860196
0.906521
0.953884
1.00217
1.0513
1.10118
1.15176
1.20299
1.25483
1.30726
1.36024
1.41376
1.4678
1.52233
1.57734
1.63281
1.68872
1.74507
1.80182
1.85897
1.91651
1.97441
2.03267
2.09129
2.15025
2.20954
2.26916
2.32911
2.38939
2.44999
2.5109
2.57214
2.63368
2.69554
2.75771
2.82017
2.88292
2.94595
3.00924
3.07276
3.1365
3.20042
3.26449
3.32866
3.39289
3.45713
3.52131
3.58537
3.64923
3.71281
3.77603
3.83878
3.90098
3.96251
4.02327
4.08314
4.14202
4.19978
4.25632
4.31152
4.36528
4.41749
4.46805
4.51688
4.56388
4.60897
4.65208
4.69317
4.73216
4.76904
4.80376
4.83632
4.8667
4.89492
4.92097
4.94488
4.96668
4.9864
5.00407
5.01975
5.03347
5.0453
5.05529
5.06348
5.06992
5.07465
5.0777
5.07893
5.07858
5.07672
5.07325
5.06826
5.06182
5.05389
5.04452
5.03376
5.02161
5.00805
4.9931
4.97676
4.95901
4.93983
4.91914
4.89691
4.87302
4.84741
4.81997
4.79059
4.75916
4.72556
4.68965
4.65133
4.61045
4.56691
4.5206
4.47144
4.41937
4.36434
4.30634
4.24543
4.18166
4.11519
4.0462
3.9749
3.90153
3.82632
3.74953
3.67147
3.59249
3.51293
3.43306
3.3531
3.27325
3.19376
3.11484
3.03669
2.95946
2.8833
2.80836
2.7348
2.66277
2.59238
2.52375
2.45695
2.39201
2.32899
2.26793
2.20882
2.15168
2.09654
2.04343
1.99228
1.94307
1.89575
1.85024
1.80652
1.76446
1.7242
1.68581
1.64947
1.61528
1.58436
1.55053
0.183376
0.274806
0.332491
0.376776
0.414813
0.449708
0.48317
0.516271
0.549744
0.584101
0.619696
0.656754
0.695401
0.735677
0.777563
0.820995
0.86588
0.912109
0.959576
1.00817
1.05782
1.10842
1.15992
1.21226
1.2654
1.31929
1.37391
1.42922
1.4852
1.54183
1.59909
1.65695
1.7154
1.77442
1.83399
1.89408
1.95469
2.01579
2.07737
2.13942
2.20193
2.26489
2.32828
2.39212
2.45638
2.52108
2.5862
2.65176
2.71774
2.78415
2.85099
2.91825
2.98593
3.05403
3.12252
3.19141
3.26067
3.33028
3.4002
3.47042
3.54087
3.61152
3.6823
3.75316
3.82402
3.89479
3.96539
4.03572
4.10567
4.17513
4.24397
4.31206
4.37929
4.4455
4.51056
4.57433
4.63668
4.69747
4.75657
4.81385
4.8692
4.92248
4.97359
5.02243
5.06893
5.11301
5.15461
5.19369
5.23022
5.26417
5.29553
5.32431
5.35051
5.37416
5.39529
5.41395
5.43017
5.44402
5.45554
5.46479
5.47183
5.47672
5.47932
5.47984
5.47823
5.47473
5.46928
5.46191
5.45267
5.4416
5.42874
5.41412
5.3978
5.3798
5.36015
5.33886
5.31597
5.29147
5.26537
5.23764
5.20826
5.17717
5.14434
5.10967
5.07311
5.03456
4.99393
4.95111
4.90599
4.85847
4.80845
4.75583
4.70054
4.6425
4.5817
4.51812
4.45182
4.38289
4.31149
4.2378
4.16203
4.08441
4.00516
3.92454
3.84283
3.76033
3.67734
3.59413
3.5109
3.42787
3.34527
3.26332
3.18219
3.10205
3.02305
2.94532
2.86902
2.79429
2.72126
2.65003
2.58068
2.51325
2.44781
2.38437
2.32295
2.26357
2.20624
2.15099
2.0978
2.04664
1.99747
1.95023
1.9049
1.86143
1.81979
1.78005
1.74235
1.70688
1.6743
1.6397
0.19808
0.292511
0.353011
0.399729
0.439951
0.476846
0.512135
0.546893
0.581853
0.617528
0.654278
0.692339
0.731854
0.77289
0.815455
0.859515
0.905012
0.95187
1.00001
1.04936
1.09984
1.15139
1.20397
1.25751
1.31197
1.36733
1.42353
1.48057
1.53841
1.59703
1.65641
1.71653
1.77737
1.8389
1.90111
1.96397
2.02747
2.09159
2.15631
2.22163
2.28752
2.35398
2.421
2.48858
2.55671
2.6254
2.69463
2.76443
2.83478
2.90569
2.97717
3.04921
3.12181
3.19497
3.26868
3.34293
3.41771
3.493
3.56876
3.64498
3.7216
3.79858
3.87585
3.95336
4.03101
4.10873
4.18641
4.26394
4.34121
4.41807
4.4944
4.57005
4.64486
4.71867
4.79131
4.86264
4.93246
5.00063
5.06698
5.13134
5.19357
5.25352
5.31105
5.36603
5.41835
5.46793
5.51466
5.55849
5.59936
5.63723
5.67208
5.7039
5.73268
5.75846
5.78125
5.8011
5.81806
5.83217
5.84351
5.85214
5.85806
5.86117
5.86176
5.85986
5.85548
5.84869
5.83955
5.82809
5.81436
5.79842
5.7803
5.76009
5.73781
5.71353
5.6873
5.65916
5.62914
5.5973
5.56366
5.52823
5.49103
5.45205
5.41127
5.36868
5.32423
5.27787
5.22954
5.17917
5.12667
5.07199
5.01502
4.95571
4.89398
4.82981
4.76316
4.69406
4.62257
4.5488
4.47289
4.39502
4.31538
4.23418
4.15163
4.06797
3.98344
3.89831
3.81283
3.72723
3.64171
3.55648
3.47174
3.38772
3.30457
3.22246
3.14151
3.06186
2.98367
2.90706
2.83216
2.75908
2.68789
2.61865
2.55141
2.4862
2.42304
2.36196
2.30295
2.24605
2.19124
2.13851
2.08783
2.03915
1.99246
1.94774
1.90499
1.86424
1.82549
1.78893
1.75496
1.71963
0.20891
0.305109
0.367563
0.416086
0.458001
0.49649
0.533255
0.569358
0.605514
0.642223
0.67984
0.718609
0.758686
0.800159
0.843065
0.887398
0.93313
0.980215
1.0286
1.07824
1.12909
1.18108
1.2342
1.28838
1.34361
1.39984
1.45704
1.5152
1.57429
1.63429
1.69518
1.75694
1.81955
1.88299
1.94724
2.01228
2.07809
2.14465
2.21195
2.27998
2.34872
2.41816
2.48829
2.55912
2.63064
2.70284
2.77575
2.84935
2.92367
2.99869
3.07443
3.15088
3.22806
3.30596
3.38458
3.46392
3.54396
3.62469
3.70609
3.78812
3.87074
3.9539
4.03755
4.12161
4.20601
4.29064
4.3754
4.46016
4.5448
4.62917
4.71311
4.79645
4.87902
4.96064
5.0411
5.12023
5.19782
5.27367
5.34759
5.41938
5.48885
5.55583
5.62015
5.68164
5.74018
5.79563
5.84788
5.89683
5.94241
5.98457
6.02325
6.05843
6.09012
6.11831
6.14304
6.16434
6.18225
6.19684
6.20817
6.2163
6.22112
6.22282
6.22151
6.21724
6.21004
6.19997
6.1871
6.17147
6.15313
6.13216
6.1086
6.08253
6.05402
6.02314
5.98996
5.95454
5.91695
5.87726
5.83554
5.79184
5.74621
5.69869
5.64932
5.59812
5.54509
5.49024
5.43354
5.37498
5.31451
5.2521
5.1877
5.12128
5.05282
4.98232
4.90977
4.8352
4.75869
4.68034
4.60029
4.51869
4.43572
4.35158
4.26643
4.18049
4.09397
4.00707
3.92001
3.83297
3.74614
3.65967
3.57377
3.48864
3.40443
3.32128
3.2393
3.15863
3.07939
3.00172
2.92575
2.85158
2.77927
2.7089
2.64051
2.57414
2.50982
2.44757
2.3874
2.32932
2.27334
2.21944
2.16761
2.11783
2.07007
2.02435
1.98066
1.93906
1.89953
1.86206
1.82696
1.79099
0.216082
0.31301
0.376658
0.426397
0.469517
0.509176
0.547045
0.584156
0.621197
0.65865
0.696856
0.736055
0.776413
0.818033
0.860976
0.905261
0.950882
0.997822
1.04606
1.09556
1.14631
1.19826
1.2514
1.30569
1.36111
1.41764
1.47526
1.53395
1.59368
1.65445
1.71624
1.77903
1.8428
1.90754
1.97322
2.03983
2.10735
2.17577
2.24507
2.31525
2.38629
2.45818
2.53091
2.60447
2.67887
2.75411
2.83021
2.90718
2.98502
3.06373
3.14333
3.22382
3.30521
3.3875
3.47069
3.55479
3.63979
3.72568
3.81244
3.90003
3.98843
4.07757
4.16742
4.25788
4.34889
4.44032
4.53208
4.62403
4.71602
4.8079
4.89948
4.99059
5.08102
5.17056
5.259
5.34611
5.43165
5.51541
5.59715
5.67663
5.75364
5.82795
5.89937
5.96771
6.03278
6.09444
6.15254
6.20695
6.25758
6.30434
6.34718
6.38605
6.42093
6.45183
6.47876
6.50176
6.52086
6.53614
6.54764
6.5554
6.5594
6.55985
6.55678
6.55024
6.5403
6.527
6.51042
6.4906
6.46762
6.44153
6.41241
6.38034
6.3454
6.30768
6.26726
6.22424
6.17871
6.13077
6.08052
6.02805
5.97346
5.91684
5.85828
5.79784
5.73561
5.67162
5.60592
5.53854
5.46952
5.39885
5.32654
5.25262
5.17713
5.10013
5.02161
4.94161
4.8602
4.7775
4.69363
4.60874
4.52297
4.43647
4.34941
4.26194
4.17423
4.08643
3.9987
3.91118
3.824
3.73728
3.65118
3.56593
3.48165
3.39842
3.31636
3.23557
3.15617
3.07828
3.00205
2.92756
2.85489
2.78409
2.71522
2.64832
2.58342
2.52056
2.45975
2.401
2.3443
2.28967
2.23709
2.18655
2.13805
2.0916
2.04721
2.00492
1.96475
1.92658
1.89057
1.8541
0.219878
0.316707
0.380898
0.431327
0.475168
0.51557
0.554161
0.591928
0.629528
0.667418
0.705923
0.745277
0.78565
0.827155
0.869868
0.913835
0.959027
1.00546
1.05316
1.10211
1.15232
1.20376
1.25643
1.31031
1.36541
1.42169
1.47916
1.53779
1.59759
1.65854
1.72063
1.78385
1.84818
1.91362
1.98014
2.04774
2.1164
2.18611
2.25686
2.32864
2.40144
2.47525
2.55006
2.62585
2.70261
2.7804
2.85923
2.93911
3.02004
3.10203
3.18508
3.26921
3.35441
3.4407
3.5281
3.61661
3.70624
3.79696
3.88876
3.98163
4.07551
4.17038
4.26617
4.36281
4.46021
4.55826
4.65685
4.75584
4.85506
4.95435
5.05351
5.15234
5.25062
5.3481
5.44454
5.5397
5.6333
5.72507
5.81476
5.9021
5.98682
6.06868
6.14742
6.22283
6.29468
6.3628
6.42699
6.48713
6.54306
6.59469
6.64194
6.68475
6.72308
6.75692
6.78628
6.8112
6.8317
6.84784
6.85969
6.86728
6.87068
6.87002
6.86531
6.85662
6.84402
6.82757
6.80733
6.78335
6.75571
6.72448
6.68973
6.65156
6.61006
6.56532
6.51746
6.4666
6.41284
6.35631
6.29716
6.2355
6.1715
6.10529
6.03701
5.96679
5.89477
5.82107
5.74579
5.66903
5.59094
5.51155
5.43093
5.34917
5.26636
5.18252
5.09766
5.01196
4.92556
4.83858
4.75112
4.6633
4.57524
4.48703
4.39881
4.31067
4.22271
4.13503
4.0477
3.96081
3.87443
3.78863
3.70343
3.61909
3.53573
3.45342
3.37224
3.29227
3.2136
3.13636
3.06071
2.98672
2.91446
2.84397
2.7753
2.70852
2.64367
2.58079
2.51988
2.46096
2.40404
2.34911
2.29619
2.24528
2.19638
2.14951
2.10468
2.06193
2.02126
1.98257
1.94588
1.90908
0.219862
0.316298
0.380586
0.431276
0.475474
0.516296
0.555292
0.593406
0.631263
0.669291
0.707799
0.747013
0.787103
0.828182
0.870362
0.913725
0.958242
1.00395
1.05086
1.09899
1.14836
1.19896
1.2508
1.30389
1.35822
1.4138
1.47063
1.52871
1.58804
1.64861
1.71044
1.7735
1.83781
1.90334
1.9701
2.03808
2.10727
2.17767
2.24927
2.32207
2.39605
2.47123
2.54757
2.62508
2.70374
2.78366
2.86481
2.9472
3.03081
3.11567
3.20179
3.28916
3.3778
3.46768
3.5589
3.65146
3.74535
3.84055
3.93705
4.03483
4.13387
4.23412
4.33553
4.43803
4.54152
4.6459
4.75105
4.85682
4.96303
5.06951
5.17605
5.28242
5.38838
5.49367
5.59802
5.70113
5.80272
5.90249
6.00013
6.09533
6.18781
6.27726
6.3634
6.44598
6.52473
6.59942
6.66986
6.73586
6.79726
6.85392
6.90574
6.95265
6.99458
7.03153
7.06348
7.09046
7.1125
7.12966
7.14199
7.14957
7.15245
7.15081
7.14456
7.13382
7.11864
7.0991
7.07523
7.04712
7.01482
6.97841
6.93798
6.89363
6.84545
6.79357
6.7381
6.67918
6.61695
6.55157
6.48319
6.41201
6.3382
6.26198
6.18352
6.10304
6.02076
5.93688
5.85154
5.76495
5.67718
5.58814
5.49831
5.40793
5.3172
5.22622
5.13553
5.04489
4.95424
4.8637
4.77335
4.68329
4.5936
4.50434
4.4156
4.32743
4.23988
4.15297
4.06672
3.98117
3.89631
3.81217
3.72882
3.64656
3.56533
3.48511
3.40595
3.32791
3.25106
3.17541
3.10122
3.02856
2.9575
2.88808
2.82035
2.75436
2.6902
2.6279
2.56747
2.50892
2.45226
2.39751
2.3447
2.29382
2.24488
2.19792
2.15294
2.10997
2.06902
2.02997
1.99283
1.9559
0.218325
0.313723
0.377679
0.428292
0.472511
0.513321
0.552289
0.590336
0.628061
0.665885
0.704087
0.742878
0.782422
0.822834
0.864196
0.906557
0.949956
0.994442
1.04007
1.08687
1.13488
1.18412
1.23462
1.2864
1.33946
1.39384
1.44955
1.50659
1.56498
1.62473
1.68584
1.74833
1.8122
1.87744
1.94406
2.01206
2.08143
2.15218
2.2243
2.2978
2.37268
2.44892
2.52652
2.60547
2.68577
2.76741
2.85043
2.93484
3.02068
3.10796
3.19668
3.28687
3.37853
3.47169
3.56641
3.66267
3.76045
3.85975
3.96053
4.06284
4.16663
4.27187
4.37849
4.48643
4.5956
4.7059
4.8172
4.92934
5.04215
5.15543
5.26898
5.38253
5.49584
5.60861
5.72056
5.83136
5.94069
6.04822
6.1536
6.2565
6.35657
6.45349
6.54693
6.63659
6.72217
6.80341
6.88007
6.95192
7.01878
7.0805
7.13692
7.18796
7.23355
7.27364
7.30822
7.33731
7.36094
7.37916
7.39203
7.39965
7.40198
7.39945
7.39171
7.37896
7.36123
7.33859
7.3111
7.27882
7.24182
7.20017
7.15398
7.10334
7.04837
6.98918
6.92594
6.85877
6.78786
6.71338
6.63553
6.55452
6.4706
6.38403
6.29506
6.20395
6.11082
6.0158
5.91941
5.82206
5.72408
5.62624
5.52824
5.43031
5.33271
5.23555
5.13943
5.04359
4.94851
4.85437
4.76124
4.6692
4.57828
4.48852
4.39994
4.31254
4.22628
4.14111
4.05699
3.97385
3.89164
3.81027
3.7296
3.65006
3.57152
3.49399
3.41746
3.34197
3.26757
3.19433
3.12257
3.05222
2.98329
2.91582
2.84984
2.78537
2.72256
2.66147
2.60211
2.54448
2.4886
2.43453
2.38227
2.33184
2.28327
2.23656
2.19174
2.14883
2.1078
2.06864
2.03131
1.99449
0.214069
0.307745
0.371017
0.42124
0.465165
0.505717
0.544403
0.582095
0.619376
0.656641
0.694166
0.732151
0.770751
0.810087
0.850249
0.891315
0.933362
0.976457
1.02064
1.06596
1.11245
1.16015
1.20911
1.25936
1.31093
1.36386
1.41817
1.47389
1.53104
1.58965
1.64974
1.71132
1.77441
1.83901
1.90514
1.9728
2.042
2.11275
2.18504
2.25889
2.33428
2.41122
2.48972
2.56976
2.65135
2.7345
2.81925
2.90559
2.99355
3.08312
3.17433
3.26719
3.36169
3.45783
3.55565
3.65517
3.75641
3.85936
3.96402
4.07043
4.17853
4.28827
4.39956
4.5124
4.6267
4.74234
4.85919
4.97712
5.09593
5.21542
5.33536
5.45551
5.57557
5.69526
5.81425
5.93221
6.04877
6.16357
6.27623
6.38639
6.49366
6.59767
6.69807
6.79449
6.88661
6.97414
7.05677
7.13427
7.20642
7.273
7.33388
7.38892
7.43803
7.48115
7.51825
7.54935
7.57447
7.59364
7.60695
7.6145
7.61625
7.61277
7.6035
7.58867
7.56832
7.54251
7.5113
7.47475
7.43293
7.38593
7.33384
7.27677
7.21484
7.14819
7.07699
7.00139
6.9216
6.83782
6.75029
6.65922
6.56459
6.46688
6.36654
6.264
6.15986
6.05471
5.94854
5.84183
5.7353
5.62821
5.52134
5.41514
5.30994
5.20595
5.1035
5.00259
4.90341
4.80608
4.71069
4.61726
4.52581
4.43631
4.34873
4.26298
4.17897
4.09654
4.01557
3.93591
3.85742
3.77997
3.70346
3.62794
3.55337
3.47973
3.407
3.33518
3.2643
3.19429
3.12554
3.05801
2.99173
2.92673
2.86305
2.80078
2.74007
2.68091
2.62329
2.56721
2.51269
2.45978
2.40855
2.35902
2.3112
2.26512
2.22078
2.17821
2.1374
2.09842
2.06118
2.02472
0.206811
0.298829
0.361085
0.410577
0.453867
0.493797
0.531821
0.568808
0.60532
0.641738
0.678327
0.715287
0.752769
0.790891
0.829752
0.869435
0.910016
0.951562
0.994135
1.03779
1.08259
1.12859
1.17584
1.22439
1.27429
1.3256
1.37835
1.43258
1.48834
1.54566
1.60457
1.6651
1.72728
1.79112
1.85664
1.92385
1.99278
2.06341
2.13578
2.20987
2.2857
2.36327
2.44257
2.52362
2.60642
2.69098
2.7773
2.8654
2.95528
3.04696
3.14044
3.23573
3.33284
3.43177
3.53256
3.63523
3.73977
3.84618
3.95442
4.06448
4.17638
4.29008
4.40552
4.52268
4.64145
4.76175
4.88346
5.00643
5.13047
5.25539
5.38095
5.50689
5.63294
5.75876
5.88403
6.0084
6.13146
6.25285
6.37214
6.48892
6.60279
6.71334
6.82015
6.92284
7.02104
7.11441
7.20262
7.28539
7.36245
7.43358
7.49858
7.55731
7.60965
7.65551
7.69485
7.72767
7.75399
7.77384
7.78729
7.79445
7.79541
7.79072
7.77965
7.76247
7.73921
7.70993
7.67468
7.63353
7.58656
7.53385
7.4755
7.41162
7.34236
7.26785
7.18819
7.10346
7.01397
6.92
6.82188
6.71996
6.61498
6.50695
6.39628
6.28355
6.16954
6.05367
5.93683
5.81962
5.70259
5.58593
5.47016
5.35575
5.24313
5.13259
5.02445
4.91891
4.81613
4.71622
4.61925
4.52522
4.43409
4.34578
4.26019
4.17714
4.09646
4.0179
3.94123
3.8662
3.79261
3.72022
3.6489
3.57855
3.50909
3.44046
3.37261
3.30553
3.23922
3.17369
3.10907
3.04541
2.98275
2.92114
2.86062
2.80117
2.74304
2.68625
2.6308
2.57671
2.52396
2.47278
2.42311
2.37495
2.32832
2.28326
2.23976
2.19786
2.15764
2.11916
2.08231
2.04647
0.197822
0.287554
0.348777
0.397381
0.439829
0.478912
0.516074
0.552163
0.587726
0.623134
0.658651
0.694474
0.730755
0.767613
0.805148
0.843447
0.882591
0.922653
0.963708
1.00582
1.04907
1.09352
1.13923
1.18628
1.23471
1.2846
1.33601
1.38899
1.44359
1.49986
1.55784
1.61756
1.67907
1.74239
1.80754
1.87455
1.94342
2.01419
2.08685
2.16141
2.23788
2.31626
2.39656
2.47877
2.5629
2.64895
2.73692
2.82681
2.91861
3.01234
3.10798
3.20554
3.30502
3.40643
3.50976
3.61504
3.72225
3.83139
3.94245
4.05542
4.17029
4.28704
4.4056
4.52594
4.64796
4.77163
4.89681
5.02338
5.15116
5.27996
5.40956
5.53971
5.67012
5.80047
5.93043
6.05963
6.18767
6.31413
6.43858
6.5606
6.67971
6.79549
6.90749
7.01528
7.11845
7.21661
7.30941
7.39651
7.47761
7.55247
7.62084
7.68255
7.73745
7.78542
7.82642
7.86042
7.88741
7.90744
7.92057
7.92687
7.92675
7.92049
7.9073
7.88745
7.86097
7.82792
7.78835
7.74233
7.68985
7.63105
7.56602
7.4949
7.41783
7.33501
7.24669
7.15322
7.05469
6.95142
6.84382
6.73252
6.61717
6.49849
6.37703
6.25336
6.12806
6.00145
5.87414
5.74681
5.62004
5.49432
5.3702
5.24822
5.12887
5.01255
4.89962
4.79034
4.68488
4.58338
4.48585
4.39228
4.30257
4.21659
4.13413
4.05495
3.97876
3.90523
3.83402
3.76478
3.69721
3.631
3.56593
3.50183
3.43854
3.37596
3.31401
3.25266
3.19187
3.13166
3.07208
3.01319
2.95502
2.89762
2.84104
2.78533
2.73061
2.67694