/*--------------------------------*- C++ -*----------------------------------*\
  =========                 |
  \\      /  F ield         | OpenFOAM: The Open Source CFD Toolbox
   \\    /   O peration     | Website:  https://openfoam.org
    \\  /    A nd           | Version:  13
     \\/     M anipulation  |
\*---------------------------------------------------------------------------*/
FoamFile
{
    format      ascii;
    class       volScalarField;
    location    "100";
    object      nut;
}
// * * * * * * * * * * * * * * * * * * * * * * * * * * * * * * * * * * * * * //

dimensions      [0 2 -1 0 0 0 0];

internalField   nonuniform List<scalar> 
12225
(
4.06008e-05
3.65132e-05
3.3212e-05
3.04153e-05
2.81345e-05
2.62116e-05
2.46458e-05
2.34146e-05
2.24099e-05
2.16945e-05
2.11991e-05
2.08823e-05
2.08723e-05
2.09557e-05
2.12783e-05
2.14985e-05
2.27665e-05
2.15476e-05
0.000298361
0.000189728
0.000155121
0.000136799
0.000126542
0.000118917
0.000115411
0.000111992
0.000110344
0.000109964
0.000109052
0.000110727
0.000110509
0.000113102
0.000113647
0.000116493
0.000117515
0.000119885
0.000660481
0.000464624
0.000375726
0.000323953
0.000291794
0.00026725
0.000250795
0.000236036
0.000226181
0.000216249
0.000208954
0.000201701
0.000196221
0.000190419
0.000185926
0.00018034
0.000177634
0.000172564
0.000811404
0.000696614
0.000602341
0.000534075
0.000486568
0.000448128
0.000420511
0.000395529
0.000377491
0.000359314
0.000346533
0.000331799
0.000322676
0.000309304
0.000301961
0.000289987
0.000283974
0.000272949
0.000843168
0.000809558
0.000752857
0.00069837
0.000654029
0.000614197
0.000583453
0.000554489
0.00053268
0.000510416
0.000494394
0.000476024
0.000463985
0.0004482
0.000438521
0.000424384
0.000416271
0.000402871
0.000852075
0.000841393
0.000820951
0.000793114
0.000763836
0.000733953
0.000708612
0.000683211
0.00066284
0.000641721
0.000625568
0.000607704
0.000594726
0.000579314
0.000568669
0.000555005
0.000546188
0.000532968
0.000852338
0.000850291
0.000843945
0.000833014
0.000819392
0.000802989
0.000786787
0.000769384
0.000754188
0.000738049
0.000724682
0.00071022
0.000698666
0.000685787
0.000675904
0.00066428
0.000655902
0.000644393
0.000851955
0.000851497
0.000850175
0.000846621
0.000841561
0.000834494
0.000826212
0.000817093
0.000807777
0.000797903
0.000788794
0.000778924
0.000770376
0.000761078
0.000753291
0.000744673
0.000737548
0.000729149
0.000851831
0.000851437
0.000851104
0.000850071
0.000848492
0.000845948
0.00084271
0.000838556
0.000834149
0.000828951
0.000823931
0.000818252
0.000813031
0.00080724
0.000802136
0.000796449
0.000791669
0.000785567
0.000851807
0.000851376
0.000851083
0.000850628
0.000850094
0.000849193
0.000848087
0.000846462
0.000844692
0.000842393
0.000840083
0.000837281
0.000834645
0.000831494
0.000828773
0.000825335
0.000822827
0.000818967
0.000851796
0.000851367
0.000851025
0.000850646
0.000850314
0.000849868
0.00084942
0.000848762
0.000848081
0.000847138
0.000846199
0.000844963
0.000843816
0.000842312
0.000841051
0.000839303
0.000838044
0.000836057
0.00085179
0.000851367
0.000851002
0.000850626
0.000850304
0.000849947
0.000849631
0.000849238
0.000848872
0.000848389
0.000847936
0.00084733
0.000846785
0.000846044
0.000845428
0.000844553
0.000843901
0.000842893
0.000851785
0.000851367
0.000850989
0.000850615
0.00085028
0.00084994
0.000849639
0.000849319
0.000849032
0.000848707
0.000848414
0.000848062
0.00084775
0.000847357
0.000847021
0.000846581
0.000846223
0.000845733
0.000851782
0.000851366
0.00085098
0.000850607
0.000850262
0.000849926
0.000849617
0.000849312
0.000849032
0.000848749
0.000848491
0.000848222
0.000847977
0.000847714
0.000847476
0.000847213
0.000846977
0.00084671
0.00085178
0.000851365
0.000850974
0.000850601
0.00085025
0.000849914
0.000849598
0.000849294
0.000849009
0.000848733
0.000848473
0.000848221
0.000847984
0.000847752
0.000847533
0.000847317
0.000847113
0.00084691
0.00085178
0.000851363
0.00085097
0.000850596
0.000850241
0.000849904
0.000849584
0.000849279
0.000848989
0.000848713
0.00084845
0.000848198
0.000847958
0.000847728
0.00084751
0.000847299
0.000847098
0.000846905
0.000851779
0.000851362
0.000850967
0.000850592
0.000850235
0.000849896
0.000849574
0.000849268
0.000848976
0.000848697
0.000848432
0.000848178
0.000847936
0.000847704
0.000847483
0.000847272
0.000847069
0.000846876
0.000851779
0.000851362
0.000850965
0.000850589
0.000850232
0.000849892
0.000849568
0.00084926
0.000848966
0.000848686
0.000848419
0.000848164
0.00084792
0.000847687
0.000847464
0.000847251
0.000847047
0.000846852
0.000851779
0.000851362
0.000850965
0.000850589
0.000850231
0.00084989
0.000849566
0.000849257
0.000848963
0.000848682
0.000848414
0.000848158
0.000847913
0.000847679
0.000847455
0.000847241
0.000847036
0.00084684
0.000851779
0.000851362
0.000850966
0.000850591
0.000850233
0.000849893
0.000849569
0.000849261
0.000848967
0.000848686
0.000848418
0.000848161
0.000847916
0.000847681
0.000847456
0.000847241
0.000847035
0.000846838
0.000851779
0.000851364
0.000850969
0.000850595
0.000850238
0.0008499
0.000849576
0.000849269
0.000848973
0.000848692
0.00084842
0.00084816
0.000847906
0.000847664
0.000847425
0.000847198
0.000846971
0.000846758
0.000851779
0.000851367
0.000850973
0.000850603
0.000850247
0.000849909
0.000849577
0.000849259
0.000848936
0.000848623
0.000848296
0.000847977
0.000847637
0.000847308
0.000846949
0.000846609
0.000846229
0.000845883
0.000851776
0.000851373
0.000850983
0.000850615
0.000850228
0.000849829
0.000849371
0.000848873
0.000848288
0.000847656
0.000846922
0.000846156
0.000845278
0.000844403
0.000843402
0.000842455
0.00084135
0.000840376
0.000851754
0.000851412
0.000850982
0.000850426
0.000849597
0.000848487
0.000847009
0.000845236
0.000843127
0.000840801
0.000838214
0.000835527
0.000832629
0.000829768
0.000826694
0.000823824
0.000820648
0.000817908
0.000851694
0.000851512
0.000849954
0.000847312
0.00084327
0.000838108
0.000831926
0.00082519
0.000817967
0.000810629
0.000803181
0.000795833
0.000788596
0.000781613
0.000774779
0.000768381
0.000761845
0.000756277
0.000851524
0.00084868
0.000837761
0.000824818
0.000808262
0.000790782
0.000773102
0.000756292
0.000740093
0.000725246
0.000711057
0.000698304
0.000685998
0.000675148
0.000664422
0.000655237
0.000645728
0.000638046
0.000844135
0.000818326
0.000773999
0.000730809
0.000692056
0.000658758
0.000629815
0.000605219
0.00058349
0.000564997
0.000548159
0.000533898
0.000520418
0.000509141
0.000497998
0.000488846
0.000479424
0.000471971
0.000791544
0.000658979
0.00057034
0.000510348
0.000467183
0.000434963
0.000409754
0.000389742
0.000373103
0.000359493
0.000347507
0.000337821
0.000328601
0.000321395
0.000313979
0.000308575
0.000302654
0.000298066
0.000465532
0.000319547
0.000265277
0.000235719
0.000216795
0.000203438
0.000193814
0.000186284
0.000180825
0.000176117
0.000173051
0.00017038
0.000167961
0.000166633
0.000165163
0.000164667
0.000163783
0.000163829
7.2179e-05
6.78564e-05
6.41735e-05
6.09442e-05
5.81296e-05
5.56296e-05
5.34382e-05
5.14942e-05
4.97858e-05
4.82928e-05
4.69678e-05
4.58545e-05
4.48497e-05
4.40306e-05
4.32997e-05
4.27241e-05
4.22264e-05
4.18515e-05
4.54154e-06
5.52757e-05
8.1541e-05
0.000104674
0.000125466
0.000143166
0.000157019
0.000166808
0.000173825
0.000183404
0.00019936
0.00021871
0.000236556
0.000246074
0.000243467
0.000230783
4.55237e-05
4.92631e-05
5.14755e-05
5.3744e-05
5.58936e-05
5.79655e-05
5.9972e-05
6.19005e-05
6.37751e-05
6.55822e-05
6.73455e-05
6.90497e-05
7.07158e-05
7.23292e-05
7.39099e-05
7.54433e-05
7.69487e-05
7.84122e-05
7.98513e-05
8.12525e-05
8.26329e-05
8.39791e-05
8.53074e-05
8.66049e-05
8.78869e-05
8.9141e-05
9.03813e-05
9.15961e-05
9.27984e-05
9.39768e-05
9.51435e-05
9.62879e-05
9.7421e-05
9.85344e-05
9.9638e-05
0.000100722
0.000101794
0.000102845
0.000103886
0.000104908
0.000105918
0.000106908
0.000107885
0.00010884
0.000109781
0.0001107
0.000111602
0.000112482
0.000113343
0.000114181
0.000114998
0.000115792
0.000116566
0.000117315
0.000118041
0.000118739
0.000119412
0.000120056
0.000120673
0.000121263
0.000121826
0.000122364
0.000122879
0.000123374
0.000123847
0.000124289
0.000124682
0.000125029
0.000125433
0.000125779
0.000126102
0.000126422
0.000126703
0.000126984
0.000127257
0.0001275
0.000127765
0.000127985
0.000128201
0.000128385
0.000128509
0.000128525
0.000128292
0.000127361
0.000128696
0.000130569
0.000128245
0.000129277
0.000131282
0.000130737
0.000131012
0.000128908
0.000131249
0.000130519
0.000130286
0.000129097
0.000129425
0.000128788
0.000129673
0.000129187
0.000130052
0.000130526
0.000129015
0.000129207
0.000128845
0.000129675
0.000129184
0.000128952
0.000128596
0.000128224
0.000127799
0.000127336
0.000126827
0.000126286
0.000125686
0.000125038
0.000124333
0.000123576
0.000122762
0.000121909
0.000121012
0.00012002
0.000119003
0.000117917
0.000116772
0.00011564
0.000114444
0.000112996
0.000111486
0.000110161
0.000108696
0.000106175
0.000104801
0.00010379
0.000102807
0.000101894
0.000100922
9.98845e-05
9.88304e-05
9.7795e-05
9.67187e-05
9.55915e-05
9.44357e-05
9.33961e-05
9.23182e-05
9.1213e-05
9.00977e-05
8.89958e-05
8.79139e-05
8.68435e-05
8.5788e-05
8.47527e-05
8.37378e-05
8.27435e-05
8.17718e-05
8.08213e-05
7.98925e-05
7.8976e-05
7.80896e-05
7.71559e-05
7.63579e-05
7.51735e-05
7.46791e-05
7.22851e-05
1.02216e-05
8.06878e-05
0.000156037
0.000209955
0.000245733
0.000269105
0.00028315
0.000289389
0.000290293
0.000289765
0.00029641
0.000305126
0.000312531
0.000316157
0.000314495
0.000297877
0.000273857
0.00028593
0.000301812
0.000318326
0.000335181
0.000352168
0.000369149
0.000386003
0.000402652
0.000419044
0.000435186
0.000451091
0.000466755
0.000482165
0.000497318
0.000512214
0.00052686
0.000541256
0.000555409
0.000569323
0.000583008
0.000596469
0.000609719
0.000622763
0.000635614
0.000648279
0.000660769
0.00067309
0.00068525
0.000697249
0.00070909
0.000720759
0.000732239
0.00074358
0.000754818
0.000765975
0.000777057
0.000788028
0.000798899
0.000809667
0.000820333
0.000830888
0.000841331
0.000851646
0.000861829
0.000871864
0.000881745
0.000891452
0.00090098
0.000910308
0.000919434
0.000928337
0.00093702
0.00094547
0.000953702
0.000961652
0.000969301
0.000976627
0.000983633
0.0009903
0.000996633
0.00100261
0.00100824
0.0010135
0.00101838
0.00102287
0.00102701
0.0010309
0.00103461
0.00103788
0.00104096
0.0010438
0.00104644
0.00104899
0.00105144
0.00105385
0.00105629
0.00105867
0.0010612
0.00106382
0.00106667
0.00106984
0.00107347
0.00107778
0.00108319
0.00108583
0.00108676
0.00109288
0.00109671
0.00110243
0.00110345
0.00109906
0.0011033
0.00110716
0.0011067
0.00110995
0.0011158
0.00111312
0.00111765
0.00112345
0.0011247
0.0011272
0.00112694
0.00113094
0.00113259
0.00113556
0.00113948
0.00114199
0.00114424
0.00114618
0.00114774
0.00114888
0.00114959
0.00114994
0.00114972
0.00114881
0.00114728
0.00114507
0.00114219
0.00113864
0.00113452
0.00112964
0.00112404
0.00111774
0.00111074
0.00110324
0.00109528
0.00108603
0.00107584
0.00106558
0.00105561
0.00104088
0.00102397
0.00100617
0.000987834
0.000969405
0.000950758
0.000931924
0.000913063
0.000894385
0.000875617
0.000857173
0.00083895
0.000821378
0.000804198
0.000787237
0.000770636
0.000754484
0.000738728
0.000723299
0.000708255
0.000693626
0.000679381
0.000665526
0.000652049
0.000638947
0.000626119
0.000613702
0.000601204
0.000589439
0.000576643
0.000564778
0.000550626
0.000499779
1.86041e-05
0.000119962
0.000222468
0.000299944
0.000354479
0.000391189
0.000415111
0.000430978
0.000442838
0.000454427
0.000469194
0.000486442
0.000504626
0.000522091
0.000537457
0.000554893
0.000573127
0.000598342
0.000626952
0.000657147
0.000688854
0.00072109
0.000753376
0.0007855
0.000817356
0.000848897
0.000880105
0.000910968
0.000941467
0.000971569
0.00100122
0.00103043
0.00105924
0.00108763
0.00111562
0.00114322
0.00117042
0.00119725
0.00122371
0.00124982
0.00127559
0.00130102
0.00132615
0.00135097
0.0013755
0.00139975
0.00142373
0.00144744
0.0014709
0.00149413
0.00151715
0.00153999
0.00156263
0.00158508
0.00160733
0.00162937
0.00165121
0.00167282
0.00169421
0.00171536
0.00173625
0.00175686
0.00177718
0.00179719
0.00181686
0.00183616
0.00185508
0.0018736
0.00189168
0.00190931
0.00192646
0.00194309
0.00195918
0.00197469
0.00198961
0.00200391
0.00201756
0.00203054
0.00204284
0.00205444
0.00206535
0.00207559
0.0020852
0.00209422
0.00210264
0.00211044
0.00211773
0.00212451
0.00213087
0.00213686
0.00214254
0.00214797
0.0021532
0.00215827
0.0021633
0.00216833
0.00217347
0.00217876
0.00218421
0.0021897
0.00219482
0.00219853
0.00220245
0.00220822
0.00221254
0.00221684
0.00221801
0.00221858
0.00222272
0.00222638
0.00222824
0.00223207
0.0022369
0.00223824
0.00224286
0.00224788
0.00225132
0.0022532
0.00225451
0.00225803
0.00225964
0.00226231
0.00226498
0.00226672
0.0022678
0.00226818
0.00226776
0.00226646
0.00226421
0.00226097
0.00225662
0.00225105
0.00224426
0.0022362
0.00222684
0.00221621
0.00220435
0.00219117
0.00217665
0.00216083
0.00214372
0.00212543
0.00210603
0.00208503
0.00206266
0.00203955
0.00201599
0.00198906
0.00195951
0.00192854
0.00189669
0.00186447
0.00183188
0.00179898
0.00176598
0.00173313
0.00170061
0.0016686
0.00163725
0.00160732
0.00157797
0.0015487
0.00152018
0.00149256
0.00146564
0.00143916
0.00141336
0.0013883
0.00136384
0.00134001
0.0013168
0.00129415
0.0012719
0.00125017
0.00122832
0.00120728
0.00118486
0.0011622
0.00114443
0.00107201
2.7501e-05
0.00015389
0.000281656
0.000380625
0.000453388
0.000505854
0.000544191
0.000573832
0.000599526
0.000625384
0.000650563
0.000677095
0.0007052
0.000734396
0.000764209
0.000795817
0.000831284
0.00087018
0.000911553
0.000954385
0.00099764
0.0010411
0.00108464
0.0011281
0.0011713
0.00121423
0.0012569
0.0012993
0.00134144
0.00138337
0.00142478
0.00146568
0.00150607
0.00154595
0.00158533
0.00162421
0.0016626
0.0017005
0.00173794
0.00177492
0.00181145
0.00184755
0.00188323
0.00191851
0.00195341
0.00198794
0.0020221
0.00205593
0.00208942
0.00212261
0.0021555
0.0021881
0.00222042
0.00225245
0.0022842
0.00231565
0.00234681
0.00237765
0.00240818
0.00243836
0.00246819
0.00249764
0.00252668
0.0025553
0.00258346
0.00261113
0.00263828
0.00266488
0.0026909
0.0027163
0.00274104
0.0027651
0.00278842
0.00281097
0.00283272
0.00285363
0.00287366
0.00289278
0.00291098
0.00292822
0.00294453
0.00295992
0.00297441
0.00298802
0.00300076
0.00301266
0.00302378
0.00303415
0.00304384
0.00305292
0.00306142
0.00306943
0.00307698
0.00308414
0.00309098
0.00309755
0.00310391
0.00311007
0.00311597
0.0031215
0.00312645
0.00313075
0.00313506
0.00313966
0.00314356
0.00314685
0.00314878
0.00315064
0.00315349
0.00315627
0.00315827
0.00316013
0.00316258
0.00316517
0.00316874
0.00317057
0.00317187
0.00317236
0.00317296
0.00317385
0.00317387
0.003174
0.00317371
0.00317261
0.00317067
0.00316781
0.00316394
0.00315895
0.00315275
0.00314525
0.00313636
0.00312597
0.00311405
0.00310052
0.00308536
0.00306858
0.00305021
0.00303032
0.00300876
0.00298554
0.00296067
0.00293423
0.00290624
0.00287659
0.00284546
0.00281319
0.00277985
0.00274419
0.00270633
0.00266698
0.00262662
0.00258567
0.00254425
0.00250249
0.00246058
0.00241877
0.00237729
0.00233631
0.00229598
0.00225672
0.00221836
0.00218131
0.00214564
0.00211135
0.00207802
0.002045
0.00201295
0.00198199
0.00195168
0.00192217
0.00189348
0.00186541
0.00183782
0.00181073
0.00178364
0.00175712
0.00172965
0.00170104
0.00167859
0.00161079
3.60806e-05
0.000183499
0.00033388
0.000452829
0.000543708
0.000612198
0.000664963
0.000707594
0.000744594
0.000779329
0.000813771
0.000849343
0.000886732
0.000926145
0.000967637
0.00101141
0.00105766
0.00110613
0.00115634
0.00120776
0.00125989
0.00131243
0.00136518
0.001418
0.00147078
0.00152338
0.00157568
0.00162761
0.0016791
0.00173006
0.00178048
0.00183037
0.00187973
0.00192854
0.0019768
0.00202452
0.0020717
0.00211834
0.00216446
0.00221005
0.00225514
0.00229974
0.00234385
0.00238749
0.00243068
0.00247344
0.00251577
0.0025577
0.00259924
0.0026404
0.00268119
0.00272162
0.0027617
0.00280143
0.00284081
0.00287982
0.00291847
0.00295674
0.00299462
0.00303208
0.00306912
0.00310571
0.00314181
0.00317741
0.00321246
0.00324694
0.00328081
0.00331402
0.00334654
0.00337833
0.00340934
0.00343954
0.00346886
0.00349728
0.00352473
0.00355119
0.00357659
0.0036009
0.00362409
0.00364613
0.00366702
0.00368677
0.00370538
0.00372287
0.00373925
0.00375455
0.0037688
0.00378206
0.00379436
0.00380577
0.00381633
0.00382609
0.0038351
0.00384342
0.0038511
0.00385818
0.00386471
0.00387069
0.0038761
0.00388088
0.00388498
0.00388848
0.00389163
0.00389452
0.0038969
0.00389876
0.0038998
0.00390053
0.00390105
0.00390234
0.0039033
0.00390258
0.00390242
0.0039024
0.00390205
0.00390116
0.00389968
0.00389769
0.00389553
0.00389318
0.00389029
0.00388708
0.00388329
0.00387872
0.00387328
0.00386688
0.0038594
0.00385075
0.00384082
0.00382951
0.00381672
0.00380235
0.00378631
0.00376856
0.00374904
0.00372773
0.00370466
0.00367989
0.00365315
0.00362457
0.00359418
0.00356204
0.00352821
0.0034927
0.00345567
0.00341729
0.00337759
0.00333606
0.00329275
0.00324803
0.0032023
0.00315588
0.00310894
0.00306165
0.00301419
0.00296679
0.00291969
0.00287307
0.00282708
0.00278199
0.00273783
0.00269483
0.00265313
0.00261331
0.00257528
0.00253867
0.00250355
0.00246991
0.0024367
0.00240446
0.00237332
0.00234272
0.00231261
0.00228294
0.00225339
0.00222421
0.00219453
0.00216365
0.00213789
0.00207291
4.39696e-05
0.00020837
0.000378169
0.000515153
0.000622997
0.000706811
0.000773434
0.000828557
0.000876704
0.000921292
0.00096473
0.00100863
0.00105397
0.00110123
0.0011506
0.00120213
0.00125572
0.00131113
0.00136802
0.00142603
0.00148483
0.00154414
0.00160375
0.00166348
0.00172318
0.00178272
0.00184199
0.00190091
0.00195939
0.00201739
0.00207488
0.00213182
0.00218822
0.00224406
0.00229933
0.00235403
0.00240817
0.00246173
0.00251473
0.00256717
0.00261906
0.00267041
0.00272124
0.00277155
0.00282137
0.0028707
0.00291956
0.00296797
0.00301594
0.00306347
0.0031106
0.00315731
0.00320362
0.00324952
0.00329503
0.00334013
0.00338482
0.00342909
0.00347293
0.00351631
0.00355922
0.00360163
0.00364351
0.00368484
0.00372558
0.00376569
0.00380513
0.00384385
0.00388182
0.00391898
0.00395528
0.00399068
0.00402511
0.00405852
0.00409087
0.00412208
0.00415212
0.00418092
0.00420845
0.00423467
0.00425956
0.00428311
0.00430531
0.00432616
0.00434567
0.00436386
0.00438076
0.00439639
0.0044108
0.00442402
0.0044361
0.00444708
0.00445701
0.00446592
0.00447387
0.00448089
0.00448703
0.0044923
0.00449671
0.00450026
0.00450295
0.00450486
0.0045061
0.00450675
0.00450674
0.00450638
0.00450506
0.00450338
0.00450155
0.00449949
0.00449649
0.00449288
0.00448906
0.00448502
0.00448062
0.00447575
0.00447039
0.0044646
0.0044585
0.00445207
0.00444518
0.00443785
0.00442994
0.00442133
0.00441192
0.00440162
0.00439034
0.00437796
0.00436439
0.00434952
0.00433323
0.00431544
0.00429604
0.00427497
0.00425216
0.00422757
0.00420118
0.00417298
0.0041429
0.00411095
0.0040772
0.00404167
0.00400444
0.00396558
0.0039252
0.00388341
0.00384025
0.00379556
0.00374937
0.00370192
0.00365348
0.00360429
0.00355454
0.0035044
0.00345406
0.00340373
0.00335362
0.00330393
0.00325481
0.00320647
0.00315901
0.00311258
0.00306734
0.0030236
0.00298148
0.0029417
0.00290405
0.0028685
0.00283443
0.00280174
0.00277017
0.00273886
0.00270808
0.00267761
0.00264732
0.00261729
0.00258703
0.00255587
0.00252812
0.00247023
5.0886e-05
0.000228469
0.000414336
0.000567165
0.000690174
0.000788221
0.000867743
0.000934516
0.000993102
0.00104699
0.00109874
0.00115011
0.00120225
0.00125583
0.00131116
0.00136833
0.00142727
0.00148779
0.00154965
0.00161256
0.00167628
0.00174055
0.00180517
0.00186998
0.00193481
0.00199953
0.00206402
0.00212819
0.00219197
0.0022553
0.00231814
0.00238047
0.00244226
0.0025035
0.00256418
0.00262429
0.00268383
0.00274278
0.00280116
0.00285896
0.00291619
0.00297287
0.003029
0.00308459
0.00313965
0.0031942
0.00324825
0.00330182
0.00335491
0.00340755
0.00345974
0.0035115
0.00356282
0.00361372
0.00366419
0.00371424
0.00376386
0.00381304
0.00386178
0.00391004
0.00395782
0.00400509
0.00405182
0.00409799
0.00414354
0.00418845
0.00423267
0.00427615
0.00431884
0.00436068
0.00440162
0.00444161
0.00448056
0.00451844
0.00455516
0.00459066
0.00462488
0.00465775
0.00468922
0.00471925
0.00474778
0.00477479
0.00480026
0.00482417
0.00484652
0.0048673
0.00488653
0.00490422
0.00492041
0.00493511
0.00494836
0.0049602
0.00497065
0.00497977
0.00498759
0.00499414
0.00499948
0.00500364
0.00500663
0.00500849
0.00500925
0.00500896
0.0050077
0.00500553
0.00500217
0.0049987
0.00499483
0.00498989
0.00498417
0.00497783
0.0049707
0.0049629
0.00495462
0.00494591
0.00493675
0.00492712
0.00491705
0.00490656
0.00489571
0.00488452
0.00487293
0.00486091
0.00484841
0.00483534
0.00482162
0.00480719
0.00479195
0.00477581
0.00475867
0.00474042
0.00472096
0.00470019
0.004678
0.0046543
0.00462902
0.00460209
0.00457348
0.00454314
0.00451105
0.00447722
0.00444166
0.00440443
0.00436559
0.0043252
0.00428336
0.00424014
0.0041956
0.00414971
0.0041025
0.00405414
0.00400481
0.00395472
0.00390403
0.00385292
0.00380156
0.00375015
0.00369889
0.00364797
0.00359755
0.00354781
0.00349886
0.00345084
0.00340389
0.00335822
0.00331401
0.00327165
0.00323193
0.00319504
0.00316038
0.00312753
0.00309612
0.00306562
0.00303577
0.00300594
0.00297627
0.00294674
0.0029171
0.00288685
0.00285849
0.0028079
5.66531e-05
0.000243927
0.000442631
0.000609311
0.000745416
0.000856163
0.000947392
0.00102479
0.0010929
0.00115525
0.00121446
0.00127241
0.00133037
0.00138915
0.00144918
0.00151065
0.00157358
0.00163786
0.00170331
0.00176974
0.00183693
0.00190469
0.00197284
0.00204124
0.00210975
0.00217822
0.00224651
0.00231451
0.00238214
0.00244937
0.00251614
0.00258242
0.0026482
0.00271347
0.00277819
0.00284237
0.00290598
0.00296902
0.00303148
0.00309338
0.0031547
0.00321547
0.00327568
0.00333534
0.00339447
0.00345308
0.00351117
0.00356877
0.0036259
0.00368255
0.00373875
0.00379451
0.00384983
0.00390473
0.0039592
0.00401326
0.0040669
0.00412011
0.00417288
0.00422521
0.00427708
0.00432845
0.00437931
0.00442962
0.00447935
0.00452845
0.00457688
0.00462458
0.0046715
0.00471757
0.00476274
0.00480693
0.00485007
0.00489209
0.0049329
0.00497244
0.00501062
0.00504737
0.00508262
0.00511629
0.00514834
0.00517871
0.00520734
0.00523422
0.00525931
0.0052826
0.00530408
0.00532374
0.00534161
0.00535769
0.005372
0.00538456
0.00539542
0.00540459
0.00541212
0.00541805
0.00542242
0.00542527
0.00542665
0.0054266
0.00542516
0.00542236
0.00541791
0.00541242
0.00540622
0.00539968
0.00539169
0.00538262
0.00537255
0.00536159
0.00534975
0.00533712
0.00532382
0.00530993
0.00529549
0.00528055
0.00526515
0.00524934
0.00523318
0.0052167
0.00519989
0.00518276
0.00516529
0.00514743
0.00512913
0.00511036
0.00509103
0.00507107
0.00505039
0.00502888
0.00500646
0.00498301
0.00495843
0.00493262
0.00490548
0.00487693
0.00484692
0.0048154
0.00478234
0.00474772
0.00471157
0.0046739
0.00463478
0.00459426
0.0045524
0.00450927
0.00446489
0.00441929
0.0043725
0.00432464
0.00427583
0.00422624
0.00417603
0.00412535
0.00407437
0.00402326
0.00397223
0.00392145
0.0038711
0.00382132
0.00377224
0.00372398
0.00367669
0.00363053
0.00358568
0.00354242
0.00350132
0.0034637
0.00342885
0.00339619
0.00336523
0.00333554
0.00330677
0.00327854
0.00325047
0.00322236
0.0031941
0.00316541
0.00313751
0.0030934
6.12044e-05
0.000254999
0.000463407
0.000641506
0.000788851
0.000910712
0.00101235
0.00109926
0.00117592
0.00124582
0.00131164
0.00137532
0.00143823
0.00150128
0.00156504
0.00162981
0.00169569
0.00176265
0.0018306
0.00189939
0.00196883
0.00203879
0.00210908
0.0021798
0.00225077
0.00232189
0.0023928
0.00246338
0.00253361
0.00260345
0.00267286
0.00274183
0.00281035
0.00287838
0.00294594
0.00301298
0.00307948
0.00314542
0.00321081
0.00327564
0.00333993
0.00340366
0.00346685
0.0035295
0.00359161
0.00365321
0.00371431
0.00377492
0.00383506
0.00389474
0.00395399
0.00401281
0.00407122
0.00412922
0.00418684
0.00424407
0.00430092
0.00435739
0.00441347
0.00446916
0.00452444
0.00457929
0.00463369
0.0046876
0.00474099
0.00479382
0.00484603
0.00489757
0.00494839
0.0049984
0.00504754
0.00509572
0.00514288
0.00518891
0.00523373
0.00527725
0.00531937
0.00536
0.00539904
0.00543642
0.00547205
0.00550585
0.00553776
0.00556772
0.00559569
0.00562161
0.00564547
0.00566725
0.00568693
0.00570451
0.00572
0.0057334
0.00574475
0.00575407
0.00576139
0.00576676
0.00577021
0.0057718
0.00577159
0.00576963
0.00576587
0.00576
0.00575262
0.00574442
0.00573524
0.00572453
0.00571239
0.00569893
0.00568425
0.00566844
0.00565157
0.00563375
0.00561509
0.00559569
0.00557563
0.005555
0.00553387
0.00551233
0.00549045
0.0054683
0.00544591
0.00542333
0.00540057
0.00537764
0.00535453
0.00533121
0.00530765
0.00528378
0.00525953
0.00523482
0.00520955
0.00518361
0.00515692
0.00512936
0.00510081
0.00507118
0.0050404
0.00500842
0.00497518
0.00494065
0.00490481
0.00486769
0.00482933
0.00478976
0.00474901
0.00470712
0.0046641
0.00461997
0.00457476
0.00452853
0.00448134
0.00443336
0.00438473
0.00433557
0.00428605
0.00423633
0.00418658
0.004137
0.00408777
0.00403902
0.00399085
0.00394339
0.00389679
0.0038512
0.0038068
0.00376384
0.00372278
0.00368506
0.00365053
0.00361839
0.00358813
0.00355933
0.00353167
0.00350482
0.0034785
0.00345244
0.00342606
0.00339925
0.00337251
0.00333392
6.45722e-05
0.000262178
0.000477314
0.000664305
0.000820942
0.000952229
0.00106287
0.00115811
0.00124227
0.00131882
0.00139041
0.00145902
0.00152608
0.00159257
0.00165914
0.00172636
0.00179439
0.00186321
0.00193277
0.002003
0.00207376
0.00214492
0.00221634
0.00228834
0.00236064
0.00243316
0.00250536
0.00257726
0.00264884
0.00272006
0.0027909
0.00286133
0.00293135
0.00300096
0.00307017
0.00313904
0.00320732
0.00327501
0.00334218
0.00340885
0.003475
0.00354062
0.00360572
0.00367029
0.00373434
0.00379789
0.00386096
0.00392358
0.00398576
0.00404752
0.00410888
0.00416985
0.00423045
0.0042907
0.00435063
0.00441023
0.00446953
0.00452853
0.00458723
0.00464563
0.00470372
0.00476148
0.00481889
0.00487593
0.00493256
0.00498873
0.0050444
0.00509951
0.00515399
0.00520776
0.00526075
0.00531286
0.005364
0.00541407
0.00546296
0.00551056
0.00555676
0.00560144
0.0056445
0.00568582
0.00572529
0.00576282
0.00579831
0.00583168
0.00586285
0.00589176
0.00591835
0.00594258
0.00596443
0.00598386
0.00600087
0.00601545
0.00602762
0.0060374
0.00604481
0.0060499
0.0060527
0.00605327
0.00605168
0.006048
0.0060419
0.00603366
0.00602378
0.00601263
0.00599992
0.00598536
0.00596911
0.00595126
0.00593193
0.00591122
0.00588925
0.00586612
0.00584196
0.0058169
0.00579106
0.00576454
0.00573747
0.00570995
0.0056821
0.00565402
0.0056258
0.00559751
0.00556922
0.005541
0.00551285
0.00548481
0.00545685
0.00542896
0.00540109
0.00537315
0.00534506
0.00531674
0.00528811
0.00525905
0.00522942
0.00519911
0.00516804
0.00513614
0.00510334
0.00506956
0.00503478
0.00499895
0.00496214
0.00492438
0.00488565
0.00484593
0.00480522
0.00476351
0.00472081
0.00467714
0.00463248
0.00458701
0.00454085
0.00449411
0.00444693
0.00439945
0.00435185
0.00430432
0.00425706
0.00421017
0.00416374
0.0041179
0.0040728
0.00402861
0.00398553
0.00394379
0.00390382
0.003867
0.00383334
0.00380208
0.00377275
0.00374496
0.00371842
0.00369287
0.00366807
0.00364381
0.00361961
0.0035948
0.00356956
0.00353565
6.68134e-05
0.000265869
0.000485
0.000678401
0.000842324
0.00098127
0.00109944
0.00120173
0.00129229
0.00137447
0.00145102
0.00152387
0.00159442
0.00166364
0.00173209
0.00180078
0.00186984
0.00193939
0.00200949
0.00208013
0.00215126
0.00222281
0.00229477
0.00236701
0.00243942
0.00251188
0.00258428
0.00265649
0.00272844
0.00280009
0.00287139
0.00294232
0.00301286
0.00308301
0.00315277
0.00322217
0.00329084
0.00335901
0.00342675
0.00349417
0.00356111
0.00362754
0.00369346
0.00375885
0.00382374
0.00388816
0.00395216
0.00401575
0.00407896
0.0041418
0.00420431
0.00426649
0.00432838
0.00439
0.00445139
0.00451257
0.00457355
0.00463436
0.00469499
0.00475546
0.00481577
0.0048759
0.00493585
0.00499558
0.00505507
0.00511428
0.00517315
0.00523162
0.00528962
0.00534708
0.0054039
0.00545997
0.0055152
0.00556946
0.00562262
0.00567456
0.00572515
0.00577424
0.00582169
0.00586737
0.00591114
0.00595288
0.00599245
0.00602975
0.00606467
0.00609711
0.00612699
0.00615425
0.00617883
0.00620067
0.00621976
0.00623607
0.0062496
0.00626036
0.00626837
0.00627366
0.00627628
0.00627628
0.00627373
0.00626861
0.00626083
0.00625072
0.00623862
0.00622461
0.00620861
0.00619049
0.00617037
0.00614836
0.00612457
0.00609912
0.00607216
0.0060438
0.00601421
0.00598353
0.0059519
0.00591947
0.0058864
0.00585283
0.0058189
0.00578477
0.00575056
0.00571641
0.00568243
0.00564874
0.0056154
0.00558247
0.00554998
0.00551794
0.00548636
0.00545514
0.00542423
0.00539355
0.00536304
0.00533267
0.0053022
0.00527149
0.00524048
0.00520908
0.00517718
0.00514469
0.00511151
0.00507753
0.00504291
0.00500764
0.00497164
0.00493485
0.00489722
0.00485871
0.00481932
0.00477903
0.00473762
0.00469543
0.0046525
0.00460893
0.00456483
0.00452033
0.00447558
0.0044308
0.00438623
0.00434191
0.00429792
0.00425438
0.00421146
0.00416935
0.00412827
0.0040885
0.0040505
0.00401547
0.00398322
0.00395318
0.00392498
0.00389832
0.00387295
0.00384864
0.00382521
0.00380248
0.00378014
0.00375726
0.00373367
0.0037037
6.80409e-05
0.000266519
0.000487162
0.000684571
0.000853618
0.000998423
0.00112267
0.0012308
0.00132659
0.00141311
0.00149337
0.00156925
0.00164227
0.00171361
0.00178422
0.00185461
0.00192477
0.00199495
0.00206529
0.00213588
0.00220673
0.00227781
0.00234906
0.00242041
0.00249178
0.0025631
0.0026343
0.00270531
0.00277606
0.00284651
0.00291661
0.00298635
0.00305571
0.00312467
0.00319328
0.0032616
0.00332957
0.00339713
0.00346431
0.00353119
0.00359754
0.00366361
0.00372922
0.00379429
0.00385877
0.00392289
0.00398668
0.00405015
0.00411332
0.00417622
0.00423886
0.00430128
0.0043635
0.00442556
0.00448753
0.00454944
0.00461133
0.00467321
0.0047351
0.00479701
0.00485896
0.00492095
0.00498298
0.00504501
0.00510704
0.00516901
0.00523089
0.0052926
0.00535408
0.00541524
0.00547597
0.00553617
0.0055957
0.00565444
0.00571223
0.00576893
0.00582436
0.00587837
0.00593079
0.00598144
0.00603016
0.00607678
0.00612115
0.00616311
0.00620252
0.00623925
0.0062732