/*--------------------------------*- C++ -*----------------------------------*\
  =========                 |
  \\      /  F ield         | OpenFOAM: The Open Source CFD Toolbox
   \\    /   O peration     | Website:  https://openfoam.org
    \\  /    A nd           | Version:  13
     \\/     M anipulation  |
\*---------------------------------------------------------------------------*/
FoamFile
{
    format      ascii;
    class       volScalarField;
    location    "100";
    object      p;
}
// * * * * * * * * * * * * * * * * * * * * * * * * * * * * * * * * * * * * * //

dimensions      [0 2 -2 0 0 0 0];

internalField   nonuniform List<scalar> 
12225
(
-4.85378
-5.77288
-6.08405
-6.1559
-6.23853
-6.3389
-6.42709
-6.50287
-6.57405
-6.64241
-6.70853
-6.77268
-6.83575
-6.89852
-6.9623
-7.03062
-7.10568
-7.19811
-5.11585
-5.83491
-6.08841
-6.14958
-6.22708
-6.32372
-6.41015
-6.48531
-6.55565
-6.62323
-6.68834
-6.75145
-6.81326
-6.87469
-6.93734
-7.00266
-7.07522
-7.14127
-5.27807
-5.82512
-6.06122
-6.13981
-6.22368
-6.31973
-6.40562
-6.48069
-6.55052
-6.61757
-6.68186
-6.74416
-6.80519
-6.86596
-6.92759
-6.99048
-7.05661
-7.11283
-5.40974
-5.82852
-6.05732
-6.14591
-6.22916
-6.32195
-6.40595
-6.47994
-6.54925
-6.61579
-6.67956
-6.74128
-6.80198
-6.86243
-6.92306
-6.9835
-7.04407
-7.09787
-5.52865
-5.84433
-6.06289
-6.15588
-6.23571
-6.32507
-6.40754
-6.48016
-6.5488
-6.6147
-6.6779
-6.7389
-6.79889
-6.85829
-6.917
-6.97451
-7.03034
-7.08047
-5.63861
-5.86414
-6.06794
-6.16496
-6.243
-6.32925
-6.41022
-6.48179
-6.54917
-6.61408
-6.67673
-6.73664
-6.79515
-6.85314
-6.90992
-6.96482
-7.01694
-7.06367
-5.73372
-5.894
-6.0743
-6.17405
-6.25114
-6.33369
-6.41263
-6.48341
-6.54976
-6.61364
-6.67543
-6.73449
-6.79156
-6.84765
-6.9023
-6.95479
-7.00423
-7.04801
-5.81616
-5.92994
-6.0847
-6.18435
-6.26019
-6.33874
-6.41517
-6.48486
-6.55007
-6.61274
-6.67328
-6.73135
-6.78727
-6.84167
-6.89427
-6.94446
-6.99153
-7.03361
-5.88815
-5.96931
-6.09936
-6.1958
-6.26998
-6.34455
-6.41813
-6.48635
-6.55026
-6.61158
-6.67074
-6.72756
-6.78215
-6.83484
-6.88547
-6.93351
-6.97841
-7.019
-5.9514
-6.00996
-6.11763
-6.20837
-6.28041
-6.35115
-6.4216
-6.48798
-6.5504
-6.61023
-6.66791
-6.7233
-6.77642
-6.82741
-6.87617
-6.92226
-6.96529
-7.00446
-6.0073
-6.05026
-6.13867
-6.22209
-6.2914
-6.35849
-6.42562
-6.48982
-6.55054
-6.60875
-6.66485
-6.71871
-6.77026
-6.81956
-6.86652
-6.91084
-6.95223
-6.99013
-6.05287
-6.08595
-6.15963
-6.23561
-6.30183
-6.36568
-6.42971
-6.49167
-6.55066
-6.60726
-6.6618
-6.71417
-6.76424
-6.81199
-6.85738
-6.90017
-6.9402
-6.97702
-6.09335
-6.11962
-6.181
-6.24956
-6.31238
-6.37306
-6.434
-6.49362
-6.55078
-6.6057
-6.65863
-6.70947
-6.75804
-6.80431
-6.84819
-6.88955
-6.92829
-6.96411
-6.13428
-6.15516
-6.20538
-6.26588
-6.32447
-6.38164
-6.43911
-6.49593
-6.55091
-6.60386
-6.65488
-6.7039
-6.75078
-6.7954
-6.83768
-6.87749
-6.91485
-6.94956
-6.17429
-6.19094
-6.23172
-6.28409
-6.33776
-6.39109
-6.44484
-6.49843
-6.55086
-6.60157
-6.65042
-6.69732
-6.74226
-6.78509
-6.8257
-6.8639
-6.89977
-6.93324
-6.21135
-6.22478
-6.25807
-6.303
-6.35141
-6.40071
-6.45066
-6.5008
-6.55033
-6.59856
-6.64504
-6.68967
-6.73243
-6.77335
-6.81218
-6.84877
-6.88308
-6.91524
-6.24253
-6.25366
-6.28144
-6.3203
-6.36379
-6.40911
-6.45547
-6.50225
-6.54876
-6.59433
-6.6384
-6.68068
-6.72121
-6.76007
-6.7971
-6.83203
-6.86481
-6.89555
-6.26337
-6.27307
-6.29745
-6.33224
-6.37202
-6.41411
-6.45749
-6.5014
-6.54516
-6.58821
-6.62999
-6.67008
-6.70849
-6.74532
-6.78053
-6.81384
-6.84513
-6.87451
-6.26663
-6.27598
-6.29956
-6.33317
-6.37152
-6.41201
-6.45369
-6.49581
-6.53771
-6.57888
-6.61885
-6.65718
-6.69384
-6.72893
-6.7625
-6.7943
-6.82423
-6.85238
-6.24514
-6.25592
-6.2827
-6.31954
-6.35997
-6.40142
-6.44357
-6.48587
-6.52767
-6.56834
-6.6076
-6.6451
-6.68095
-6.71514
-6.74777
-6.77857
-6.80758
-6.83485
-6.21161
-6.22511
-6.25803
-6.30088
-6.34501
-6.38866
-6.43243
-6.47603
-6.51854
-6.55951
-6.59867
-6.63604
-6.67158
-6.70546
-6.73754
-6.76786
-6.79625
-6.82313
-6.1667
-6.18528
-6.22858
-6.28002
-6.32868
-6.37507
-6.42124
-6.46666
-6.51031
-6.55187
-6.59136
-6.62884
-6.66437
-6.69806
-6.72989
-6.75987
-6.78798
-6.81455
-6.1113
-6.139
-6.19811
-6.25983
-6.3127
-6.36203
-6.41104
-6.45849
-6.50333
-6.54563
-6.58561
-6.62333
-6.65894
-6.69251
-6.72424
-6.75403
-6.78203
-6.80839
-6.04496
-6.08901
-6.17033
-6.24215
-6.29803
-6.35048
-6.40254
-6.45184
-6.49772
-6.54077
-6.5813
-6.61931
-6.6549
-6.6884
-6.72002
-6.74981
-6.77771
-6.80404
-5.96598
-6.0391
-6.14855
-6.22771
-6.28504
-6.34096
-6.39593
-6.44656
-6.49329
-6.53705
-6.57816
-6.61641
-6.65193
-6.68536
-6.71701
-6.74678
-6.77445
-6.80052
-5.87152
-5.99457
-6.13477
-6.21624
-6.27401
-6.33338
-6.39065
-6.44217
-6.48964
-6.53385
-6.57508
-6.613
-6.64818
-6.68196
-6.71436
-6.74467
-6.77244
-6.7979
-5.75856
-5.96113
-6.12813
-6.20615
-6.26551
-6.32716
-6.38575
-6.43868
-6.48733
-6.53195
-6.57299
-6.61101
-6.64679
-6.68109
-6.71363
-6.74381
-6.77144
-6.79681
-5.63069
-5.94157
-6.12592
-6.19466
-6.25628
-6.32195
-6.38289
-6.43741
-6.48682
-6.53195
-6.57353
-6.61224
-6.64858
-6.68292
-6.71516
-6.74514
-6.77277
-6.79828
-5.47434
-5.9395
-6.14489
-6.20039
-6.25556
-6.32202
-6.38314
-6.43715
-6.48625
-6.53148
-6.57335
-6.61239
-6.64907
-6.68359
-6.71596
-6.74621
-6.77431
-6.80024
-5.26095
-5.89945
-6.15126
-6.21423
-6.27078
-6.33919
-6.40119
-6.45517
-6.50405
-6.54916
-6.59095
-6.62979
-6.66636
-6.70081
-6.73319
-6.76354
-6.7922
-6.82035
-7.92137
-7.91932
-7.92015
-7.92484
-7.93134
-7.93893
-7.94692
-7.95453
-7.96028
-7.96524
-7.97318
-7.98516
-8.00009
-8.01621
-8.03111
-8.04364
-8.05766
-8.07917
-8.10704
-8.13754
-8.17049
-8.20541
-8.24185
-8.27934
-8.31756
-8.35616
-8.39494
-8.43363
-8.47209
-8.5101
-8.54758
-8.58432
-8.62027
-8.65527
-8.68928
-8.72217
-8.75391
-8.78438
-8.81356
-8.84137
-8.86776
-8.89267
-8.91606
-8.93787
-8.95806
-8.97659
-8.99341
-9.0085
-9.02175
-9.03316
-9.0426
-9.05007
-9.05544
-9.05875
-9.0599
-9.05897
-9.05578
-9.05032
-9.04241
-9.0322
-9.0195
-9.00446
-8.98685
-8.96687
-8.94428
-8.91934
-8.89178
-8.86191
-8.82945
-8.79475
-8.75753
-8.71816
-8.67637
-8.63255
-8.58644
-8.53849
-8.48835
-8.43642
-8.38237
-8.32669
-8.26896
-8.20957
-8.14806
-8.08491
-8.01955
-7.9524
-7.88289
-7.81113
-7.73647
-7.65875
-7.57813
-7.49418
-7.40645
-7.31434
-7.21735
-7.1148
-7.00612
-6.89052
-6.7673
-6.63562
-6.49475
-6.34389
-6.18219
-6.00874
-5.82241
-5.62225
-5.40721
-5.17656
-4.92926
-4.66459
-4.38161
-4.07978
-3.75834
-3.41687
-3.05482
-2.67202
-2.2681
-1.84317
-1.3974
-0.931395
-0.44573
0.0587419
0.581098
1.12001
1.67399
2.24111
2.81935
3.40641
3.99994
4.59741
5.19621
5.79367
6.38712
6.97383
7.55109
8.11631
8.66695
9.20062
9.71539
10.2096
10.6823
11.1326
11.5607
11.9663
12.3489
12.7087
13.046
13.3616
13.6559
13.9289
14.1813
14.4137
14.6268
14.8211
14.9977
15.1576
15.3022
15.4324
15.5495
15.6545
15.7483
15.832
15.9063
15.9722
16.0304
16.0816
16.1267
16.1662
16.2009
16.2315
16.2585
16.283
16.3057
16.3278
16.3511
16.3781
16.4135
16.4647
16.5521
16.6917
-7.9165
-7.91678
-7.9188
-7.92216
-7.92498
-7.92761
-7.93066
-7.93348
-7.9355
-7.93866
-7.94437
-7.95102
-7.95723
-7.96347
-7.97239
-7.98703
-8.01018
-8.03848
-8.06725
-8.09756
-8.12986
-8.1639
-8.19937
-8.23593
-8.27328
-8.31109
-8.34917
-8.38726
-8.42521
-8.46281
-8.49994
-8.53642
-8.57217
-8.60703
-8.64093
-8.67376
-8.70545
-8.73593
-8.76513
-8.79299
-8.81946
-8.84447
-8.86798
-8.88994
-8.91028
-8.92899
-8.94599
-8.96126
-8.97472
-8.98637
-8.99609
-9.00381
-9.00948
-9.01316
-9.01477
-9.01415
-9.01109
-9.00583
-8.99829
-8.9884
-8.97604
-8.96127
-8.94398
-8.92424
-8.90195
-8.87721
-8.8499
-8.82017
-8.78791
-8.75328
-8.7162
-8.67686
-8.63515
-8.59129
-8.54521
-8.49715
-8.44697
-8.3949
-8.34084
-8.28501
-8.22725
-8.16775
-8.10632
-8.04314
-7.97794
-7.91088
-7.84169
-7.77029
-7.69611
-7.61918
-7.53939
-7.45647
-7.36994
-7.27926
-7.18392
-7.08332
-6.97684
-6.86376
-6.74336
-6.61478
-6.47733
-6.33017
-6.17254
-6.00337
-5.82171
-5.62643
-5.41665
-5.1914
-4.9499
-4.69124
-4.4147
-4.11951
-3.80506
-3.47073
-3.11613
-2.74085
-2.34466
-1.92748
-1.48954
-1.03127
-0.553267
-0.0562504
0.458898
0.990992
1.53855
2.09977
2.67265
3.25498
3.84443
4.4385
5.03465
5.63018
6.22247
6.80877
7.38638
7.95278
8.50535
9.04179
9.5602
10.0588
10.5365
10.9926
11.4265
11.8376
12.2255
12.5897
12.9308
13.2496
13.5467
13.8226
14.078
14.314
14.5311
14.7299
14.9111
15.0756
15.2247
15.3593
15.4806
15.5896
15.6873
15.7746
15.8525
15.9217
15.983
16.0373
16.0852
16.1274
16.1646
16.1976
16.227
16.2536
16.2784
16.3026
16.328
16.357
16.3943
16.4455
16.5312
16.6394
-7.89934
-7.90456
-7.91082
-7.91572
-7.91888
-7.92083
-7.92205
-7.92266
-7.9231
-7.92474
-7.92897
-7.93528
-7.94311
-7.95233
-7.96361
-7.978
-7.99654
-8.01916
-8.04444
-8.07214
-8.10207
-8.13385
-8.16716
-8.20163
-8.237
-8.273
-8.30941
-8.346
-8.3826
-8.41899
-8.45503
-8.49054
-8.52539
-8.55946
-8.59265
-8.62485
-8.65598
-8.68595
-8.71472
-8.74219
-8.76832
-8.79304
-8.81631
-8.83806
-8.85825
-8.87683
-8.89374
-8.90895
-8.92238
-8.93401
-8.94371
-8.95142
-8.95713
-8.96085
-8.9625
-8.96194
-8.95906
-8.95401
-8.94667
-8.93694
-8.92476
-8.91015
-8.89305
-8.87347
-8.85136
-8.82676
-8.79962
-8.77001
-8.73789
-8.70336
-8.6664
-8.62712
-8.58553
-8.54172
-8.49576
-8.44775
-8.39771
-8.34574
-8.29188
-8.23624
-8.1788
-8.11965
-8.05875
-7.99613
-7.93171
-7.86549
-7.79738
-7.72714
-7.65446
-7.57914
-7.50124
-7.42043
-7.33615
-7.24807
-7.15555
-7.05816
-6.95516
-6.84596
-6.72973
-6.60576
-6.4733
-6.33156
-6.17967
-6.01651
-5.84116
-5.65252
-5.44982
-5.2319
-4.998
-4.74713
-4.47865
-4.19161
-3.88546
-3.55956
-3.2136
-2.847
-2.45961
-2.05125
-1.62215
-1.17261
-0.703268
-0.214745
0.292119
0.816277
1.35627
1.91042
2.47678
3.05323
3.63749
4.2271
4.81953
5.41213
6.00228
6.58723
7.16432
7.73102
8.28477
8.82332
9.34479
9.84747
10.3301
10.792
11.2322
11.65
12.0446
12.4161
12.7647
13.0911
13.3956
13.6786
13.9409
14.1835
14.4072
14.6126
14.8003
14.9713
15.1265
15.2671
15.394
15.5084
15.6111
15.7032
15.7855
15.8589
15.9242
15.9822
16.0335
16.079
16.1193
16.1552
16.1873
16.2165
16.2437
16.2702
16.2975
16.3281
16.366
16.4144
16.4892
16.5601
-7.87107
-7.88204
-7.89464
-7.903
-7.90791
-7.91069
-7.91215
-7.91294
-7.91387
-7.9159
-7.91998
-7.92634
-7.93509
-7.94622
-7.95984
-7.97609
-7.99512
-8.017
-8.04146
-8.06819
-8.09695
-8.12739
-8.15925
-8.19225
-8.22616
-8.26072
-8.29572
-8.33095
-8.36623
-8.40136
-8.43619
-8.47056
-8.50435
-8.53742
-8.56969
-8.60103
-8.63137
-8.66062
-8.68871
-8.71558
-8.74115
-8.76537
-8.78818
-8.80952
-8.82935
-8.84759
-8.86421
-8.87914
-8.89232
-8.9037
-8.91318
-8.92074
-8.92633
-8.92993
-8.93146
-8.93084
-8.92799
-8.92288
-8.91543
-8.90559
-8.89332
-8.87862
-8.86142
-8.84172
-8.81949
-8.79475
-8.76747
-8.73768
-8.7054
-8.67067
-8.63352
-8.59403
-8.55224
-8.50824
-8.46209
-8.4139
-8.36372
-8.31165
-8.25775
-8.2021
-8.14476
-8.08576
-8.02515
-7.96291
-7.89903
-7.83347
-7.76617
-7.69693
-7.62538
-7.55155
-7.47526
-7.39619
-7.31396
-7.22806
-7.13806
-7.04337
-6.94341
-6.83747
-6.72482
-6.60474
-6.47644
-6.33914
-6.19183
-6.03352
-5.86319
-5.67991
-5.48272
-5.27061
-5.04264
-4.79794
-4.53566
-4.25502
-3.95537
-3.6361
-3.29676
-2.93686
-2.55617
-2.15455
-1.73211
-1.28921
-0.82638
-0.344231
0.156442
0.674615
1.20888
1.75763
2.31897
2.89084
3.47098
4.05698
4.64632
5.23635
5.82444
6.40787
6.98399
7.55024
8.10418
8.64359
9.16664
9.67172
10.1576
10.6234
11.0683
11.4912
11.8914
12.2689
12.6237
12.9564
13.2671
13.5562
13.8244
14.0727
14.3018
14.5126
14.7056
14.8819
15.0422
15.1876
15.3193
15.4381
15.545
15.641
15.7271
15.804
15.8725
15.9336
15.9878
16.036
16.0788
16.117
16.1513
16.1825
16.2115
16.2394
16.2678
16.2985
16.3349
16.3778
16.4381
16.4793
-7.83918
-7.85454
-7.87444
-7.88788
-7.89608
-7.90138
-7.90498
-7.90782
-7.91083
-7.91482
-7.92048
-7.92818
-7.93815
-7.95049
-7.96533
-7.98267
-8.00249
-8.02462
-8.0489
-8.0751
-8.10304
-8.13246
-8.16317
-8.19491
-8.2275
-8.26071
-8.29435
-8.32822
-8.36215
-8.39597
-8.42955
-8.46271
-8.49536
-8.52736
-8.55861
-8.58901
-8.61847
-8.6469
-8.67424
-8.70041
-8.72534
-8.74898
-8.77125
-8.7921
-8.81147
-8.82931
-8.84554
-8.86012
-8.87298
-8.88406
-8.89329
-8.90063
-8.906
-8.90937
-8.91064
-8.90976
-8.90665
-8.90126
-8.89353
-8.88342
-8.87087
-8.85587
-8.83836
-8.81834
-8.79577
-8.77067
-8.74302
-8.71287
-8.68021
-8.6451
-8.60759
-8.56774
-8.52562
-8.48131
-8.43491
-8.3865
-8.33618
-8.28404
-8.23017
-8.17464
-8.11753
-8.05888
-7.99875
-7.93715
-7.87406
-7.80948
-7.74333
-7.67541
-7.60556
-7.53343
-7.45927
-7.38243
-7.3027
-7.21948
-7.13245
-7.04093
-6.94441
-6.8421
-6.73337
-6.61741
-6.49342
-6.36059
-6.21782
-6.06426
-5.89872
-5.72048
-5.52829
-5.32137
-5.09856
-4.85919
-4.60218
-4.32696
-4.0326
-3.71869
-3.38448
-3.02969
-2.6539
-2.25716
-1.8394
-1.40104
-0.942449
-0.464316
0.0326657
0.547373
1.0785
1.62442
2.18329
2.75307
3.33152
3.91623
4.50464
5.09415
5.68203
6.26561
6.84219
7.40925
7.96436
8.50536
9.03043
9.53799
10.0268
10.4959
10.9443
11.3709
11.7753
12.1571
12.5165
12.8536
13.1689
13.4624
13.735
13.9874
14.2206
14.4353
14.6322
14.8122
14.9762
15.1253
15.2604
15.3826
15.4927
15.5918
15.6807
15.7602
15.8313
15.8946
15.951
16.0011
16.0458
16.0857
16.1215
16.154
16.184
16.2126
16.241
16.2706
16.3039
16.34
16.3865
16.4043
-7.81113
-7.83117
-7.85723
-7.87528
-7.88702
-7.89542
-7.90187
-7.90741
-7.91299
-7.91937
-7.92717
-7.93674
-7.94834
-7.96207
-7.97801
-7.99614
-8.01643
-8.03872
-8.06289
-8.08873
-8.11609
-8.14474
-8.17453
-8.20524
-8.23671
-8.26873
-8.30115
-8.33378
-8.36648
-8.39909
-8.43147
-8.46348
-8.49501
-8.52595
-8.55619
-8.58563
-8.61419
-8.64178
-8.66834
-8.69377
-8.71803
-8.74103
-8.76272
-8.78303
-8.80189
-8.81926
-8.83505
-8.84922
-8.86168
-8.87239
-8.88126
-8.88824
-8.89325
-8.89625
-8.89713
-8.89585
-8.89232
-8.8865
-8.87831
-8.86773
-8.85468
-8.83915
-8.82108
-8.80048
-8.77731
-8.75158
-8.72329
-8.69248
-8.65917
-8.62342
-8.58527
-8.54482
-8.50213
-8.45731
-8.41046
-8.36168
-8.31109
-8.25879
-8.20488
-8.14945
-8.09257
-8.03433
-7.97478
-7.91394
-7.85183
-7.78843
-7.7237
-7.65749
-7.58939
-7.51967
-7.44782
-7.37374
-7.29688
-7.2169
-7.13326
-7.04544
-6.95277
-6.8546
-6.75019
-6.63874
-6.51944
-6.39133
-6.25347
-6.10478
-5.94432
-5.77107
-5.58402
-5.38215
-5.16452
-4.93023
-4.67843
-4.40824
-4.11887
-3.8097
-3.48013
-3.12972
-2.7582
-2.36545
-1.9515
-1.51663
-1.06121
-0.585821
-0.0912482
0.421417
0.950858
1.49547
2.05344
2.6227
3.20103
3.78599
4.37502
4.96547
5.5546
6.13972
6.71813
7.28728
7.84479
8.38851
8.91658
9.42738
9.91958
10.3921
10.8438
11.274
11.682
12.0675
12.4306
12.7714
13.0902
13.3874
13.6635
13.9193
14.1557
14.3734
14.5732
14.7562
14.9231
15.075
15.2129
15.3377
15.4504
15.5519
15.6431
15.7248
15.7978
15.863
15.921
15.9727
16.0187
16.0598
16.0966
16.1299
16.1603
16.1889
16.2166
16.2443
16.2737
16.3026
16.337
16.3356
-7.79181
-7.81733
-7.84736
-7.86837
-7.88299
-7.89422
-7.9034
-7.91154
-7.91956
-7.9282
-7.93801
-7.94934
-7.96246
-7.97746
-7.99442
-8.01329
-8.03404
-8.05652
-8.08065
-8.10624
-8.13315
-8.16121
-8.19026
-8.22012
-8.25066
-8.28168
-8.31305
-8.34459
-8.37619
-8.40769
-8.43898
-8.46991
-8.50041
-8.53034
-8.55962
-8.58815
-8.61585
-8.64263
-8.66842
-8.69315
-8.71674
-8.73913
-8.76024
-8.78001
-8.79838
-8.81527
-8.83061
-8.84434
-8.85638
-8.86667
-8.87513
-8.8817
-8.88628
-8.88882
-8.88922
-8.88744
-8.88337
-8.87699
-8.8682
-8.85698
-8.84325
-8.82699
-8.80816
-8.78674
-8.76273
-8.73613
-8.70695
-8.67523
-8.641
-8.60434
-8.56531
-8.524
-8.4805
-8.43495
-8.38744
-8.33811
-8.28709
-8.2345
-8.18045
-8.12504
-8.06838
-8.01054
-7.95159
-7.89159
-7.83057
-7.76852
-7.70541
-7.64101
-7.57524
-7.50782
-7.43879
-7.36774
-7.29413
-7.2177
-7.13781
-7.05402
-6.96557
-6.87185
-6.77208
-6.66542
-6.55106
-6.42792
-6.29516
-6.15153
-5.99623
-5.82802
-5.64617
-5.4494
-5.23696
-5.00768
-4.7609
-4.49548
-4.21085
-3.9061
-3.58082
-3.2344
-2.8667
-2.47744
-2.06676
-1.63472
-1.18177
-0.708383
-0.215457
0.296002
0.82461
1.36882
1.92678
2.49644
3.07555
3.66163
4.25215
4.84437
5.4356
6.02307
6.60413
7.17623
7.73696
8.28415
8.81585
9.3304
9.82633
10.3025
10.7578
11.1916
11.6031
11.9921
12.3585
12.7027
13.0246
13.3249
13.604
13.8627
14.1017
14.322
14.5244
14.7097
14.879
15.0332
15.1733
15.3002
15.415
15.5185
15.6116
15.6951
15.7699
15.8366
15.896
15.949
15.9961
16.038
16.0755
16.1092
16.1397
16.1677
16.1942
16.2195
16.2445
16.2664
16.2899
16.2727
-7.78342
-7.813
-7.84548
-7.868
-7.88454
-7.89798
-7.90939
-7.91971
-7.92982
-7.94037
-7.95189
-7.9647
-7.97906
-7.99506
-8.01279
-8.03221
-8.05328
-8.07588
-8.09993
-8.12527
-8.15179
-8.17931
-8.20772
-8.23685
-8.26657
-8.29671
-8.32715
-8.35775
-8.38837
-8.41889
-8.4492
-8.47919
-8.50876
-8.53779
-8.56622
-8.59394
-8.62088
-8.64694
-8.67206
-8.69615
-8.71915
-8.74099
-8.76159
-8.78088
-8.79878
-8.81523
-8.83015
-8.84347
-8.8551
-8.86498
-8.87301
-8.87913
-8.88324
-8.88527
-8.88514
-8.88278
-8.87809
-8.87103
-8.86151
-8.84949
-8.83492
-8.81775
-8.79796
-8.77554
-8.75047
-8.72278
-8.69248
-8.65962
-8.62425
-8.58646
-8.54631
-8.50393
-8.45942
-8.41292
-8.36457
-8.31453
-8.26293
-8.20994
-8.15567
-8.10024
-8.04376
-7.98634
-7.92806
-7.86899
-7.80918
-7.74864
-7.68733
-7.62508
-7.56164
-7.4971
-7.43111
-7.36331
-7.29335
-7.22071
-7.14496
-7.06546
-6.98158
-6.89261
-6.79776
-6.6962
-6.58695
-6.46906
-6.34144
-6.20308
-6.05293
-5.89001
-5.7133
-5.52177
-5.31436
-5.09009
-4.84805
-4.5873
-4.30704
-4.0065
-3.68509
-3.34235
-2.97798
-2.5918
-2.1838
-1.75404
-1.30291
-0.830925
-0.338959
0.171943
0.700418
1.2449
1.80353
2.37425
2.95476
3.5426
4.13516
4.72974
5.3236
5.91401
6.49827
7.07383
7.63823
8.18927
8.72492
9.24343
9.74327
10.2232
10.6822
11.1195
11.5345
11.9268
12.2965
12.6436
12.9685
13.2715
13.5533
13.8145
14.0559
14.2785
14.483
14.6704
14.8416
14.9977
15.1396
15.2684
15.3849
15.49
15.5847
15.6698
15.746
15.8141
15.8748
15.9288
15.9768
16.0194
16.0573
16.0911
16.1213
16.1486
16.1734
16.1959
16.2165
16.2316
16.2457
16.2156
-7.7868
-7.81717
-7.84996
-7.87311
-7.89088
-7.90583
-7.91887
-7.93082
-7.94251
-7.95453
-7.96735
-7.98127
-7.99654
-8.01325
-8.03149
-8.05123
-8.07244
-8.09503
-8.11892
-8.14396
-8.17007
-8.19709
-8.22491
-8.25337
-8.28237
-8.31174
-8.34138
-8.37114
-8.40093
-8.43061
-8.4601
-8.48928
-8.51807
-8.54636
-8.57408
-8.60112
-8.62743
-8.65289
-8.67746
-8.70104
-8.72357
-8.74496
-8.76514
-8.78403
-8.80156
-8.81763
-8.83219
-8.84513
-8.85639
-8.86586
-8.87347
-8.87913
-8.88274
-8.88423
-8.8835
-8.88048
-8.87508
-8.86723
-8.85685
-8.84391
-8.82833
-8.8101
-8.78917
-8.76555
-8.73922
-8.71023
-8.67858
-8.64435
-8.60761
-8.56845
-8.52697
-8.4833
-8.43756
-8.38993
-8.34055
-8.28963
-8.23732
-8.18381
-8.12923
-8.07372
-8.01742
-7.96046
-7.90291
-7.84489
-7.78644
-7.72759
-7.6683
-7.60838
-7.54777
-7.48609
-7.42351
-7.35931
-7.29326
-7.22478
-7.15347
-7.0786
-6.99961
-6.91571
-6.82607
-6.72988
-6.62598
-6.51352
-6.39121
-6.25829
-6.11348
-5.95601
-5.78455
-5.59828
-5.39586
-5.17655
-4.93911
-4.68288
-4.40675
-4.11016
-3.79231
-3.45292
-3.0915
-2.70797
-2.3021
-1.87412
-1.42422
-0.953112
-0.461534
0.0493534
0.578255
1.12354
1.68336
2.25563
2.83802
3.42808
4.02315
4.62059
5.21758
5.8114
6.39932
6.97871
7.54713
8.10224
8.64203
9.16459
9.66842
10.1522
10.6149
11.0556
11.4739
11.8694
12.2421
12.5921
12.9197
13.2252
13.5094
13.7728
14.0164
14.2409
14.4473
14.6365
14.8094
14.9672
15.1107
15.2409
15.3589
15.4655
15.5615
15.6478
15.7253
15.7945
15.8563
15.9112
15.96
16.0032
16.0414
16.0751
16.1049
16.131
16.154
16.1736
16.1897
16.1985
16.2044
16.1637
-7.80129
-7.83013
-7.8611
-7.8836
-7.90152
-7.91702
-7.93085
-7.94373
-7.95637
-7.96929
-7.98292
-7.99753
-8.01335
-8.03047
-8.04898
-8.06884
-8.09004
-8.11248
-8.13612
-8.16081
-8.18649
-8.213
-8.24025
-8.2681
-8.29644
-8.32513
-8.35408
-8.38316
-8.41226
-8.44128
-8.47011
-8.49866
-8.52684
-8.55455
-8.58172
-8.60826
-8.63409
-8.65912
-8.68329
-8.7065
-8.72869
-8.74977
-8.76966
-8.78826
-8.8055
-8.8213
-8.83555
-8.84819
-8.85911
-8.86822
-8.87542
-8.88062
-8.88372
-8.88464
-8.88326
-8.87952
-8.8733
-8.86456
-8.8532
-8.8392
-8.82246
-8.80297
-8.7807
-8.75567
-8.72786
-8.69732
-8.66408
-8.62823
-8.58986
-8.54909
-8.50603
-8.46083
-8.41365
-8.36468
-8.31411
-8.26214
-8.20898
-8.15484
-8.09989
-8.0443
-7.98822
-7.93178
-7.87507
-7.81822
-7.76127
-7.70427
-7.64719
-7.58991
-7.53206
-7.47388
-7.41477
-7.35455
-7.29267
-7.22871
-7.16209
-7.09222
-7.0184
-6.93986
-6.85577
-6.76509
-6.66685
-6.55988
-6.44323
-6.31584
-6.17668
-6.02464
-5.85862
-5.6775
-5.48018
-5.26562
-5.03282
-4.78082
-4.50872
-4.21576
-3.90131
-3.56491
-3.20617
-2.82485
-2.42079
-1.99412
-1.54515
-1.0745
-0.582997
-0.0717557
0.457887
1.00429
1.5656
2.13975
2.72441
3.31709
3.91515
4.51589
5.11649
5.71414
6.30608
6.88963
7.46227
8.02165
8.56564
9.09233
9.60013
10.0877
10.554
10.9981
11.4197
11.8182
12.1938
12.5464
12.8765
13.1844
13.4707
13.7362
13.9816
14.2079
14.416
14.6067
14.7812
14.9404
15.0853
15.2169
15.3361
15.4439
15.5411
15.6285
15.707
15.7773
15.84
15.8958
15.9452
15.9888
16.0272
16.0607
16.0898
16.1148
16.1358
16.1524
16.1642
16.1671
16.1659
16.1165
-7.82396
-7.8494
-7.87701
-7.89781
-7.91491
-7.93007
-7.94392
-7.95705
-7.97004
-7.98337
-7.9974
-8.01234
-8.02836
-8.04555
-8.06404
-8.0838
-8.10482
-8.12698
-8.15027
-8.17455
-8.19976
-8.22577
-8.25248
-8.27977
-8.30754
-8.33566
-8.36404
-8.39257
-8.42114
-8.44964
-8.47799
-8.50608
-8.53384
-8.56116
-8.58798
-8.61419
-8.63974
-8.66453
-8.68849
-8.71151
-8.73353
-8.75445
-8.77418
-8.79262
-8.80969
-8.82529
-8.83934
-8.85173
-8.86237
-8.87115
-8.87796
-8.8827
-8.88526
-8.88556
-8.88347
-8.87892
-8.87179
-8.86203
-8.84955
-8.8343
-8.81619
-8.79522
-8.77138
-8.74469
-8.71515
-8.68282
-8.64774
-8.61002
-8.56975
-8.52712
-8.48225
-8.43532
-8.3865
-8.33602
-8.2841
-8.23098
-8.17689
-8.12206
-8.0667
-8.011
-7.95516
-7.8993
-7.84353
-7.78796
-7.73267
-7.67769
-7.62301
-7.56845
-7.51392
-7.45912
-7.40396
-7.34796
-7.29055
-7.23136
-7.16974
-7.10511
-7.03675
-6.96381
-6.88545
-6.80047
-6.70802
-6.60675
-6.49593
-6.37421
-6.24078
-6.0942
-5.93363
-5.75761
-5.56534
-5.35544
-5.12715
-4.87925
-4.61104
-4.32155
-4.01034
-3.67674
-3.32049
-2.94115
-2.53871
-2.11316
-1.665
-1.1947
-0.703175
-0.191436
0.33911
0.886867
1.44998
2.02635
2.61367
3.20939
3.81086
4.41529
5.01985
5.62166
6.21789
6.80581
7.38283
7.94657
8.49479
9.02561
9.53732
10.0286
10.4984
10.9459
11.3705
11.772
12.1502
12.5054
12.8377
13.1478
13.4361
13.7034
13.9506
14.1785
14.388
14.5802
14.756
14.9164
15.0626
15.1954
15.3157
15.4246
15.5228
15.6112
15.6907
15.7618
15.8254
15.8819
15.9318
15.9758
16.0142
16.0475
16.0759
16.0996
16.1186
16.1322
16.14
16.1376
16.1301
16.0736
-7.85136
-7.87206
-7.89525
-7.91358
-7.92913
-7.94325
-7.95649
-7.9693
-7.98217
-7.99549
-8.00957
-8.02443
-8.04014
-8.05712
-8.07553
-8.09507
-8.11572
-8.13746
-8.1603
-8.18413
-8.20887
-8.23439
-8.26062
-8.28744
-8.31475
-8.34244
-8.3704
-8.39853
-8.42674
-8.45491
-8.48296
-8.51078
-8.53831
-8.56543
-8.59209
-8.61818
-8.64363
-8.66834
-8.69225
-8.71524
-8.73725
-8.75815
-8.77788
-8.7963
-8.81333
-8.82885
-8.84278
-8.855
-8.86539
-8.87385
-8.88025
-8.8845
-8.88647
-8.88607
-8.88318
-8.87771
-8.86953
-8.85858
-8.84476
-8.82809
-8.80846
-8.78582
-8.76017
-8.73158
-8.70005
-8.66566
-8.62849
-8.58863
-8.54624
-8.50149
-8.45456
-8.40567
-8.35504
-8.30288
-8.24947
-8.19508
-8.13996
-8.08437
-8.02858
-7.97277
-7.91716
-7.86191
-7.80715
-7.75298
-7.6995
-7.64674
-7.59467
-7.54315
-7.49195
-7.44107
-7.39005
-7.33845
-7.28582
-7.2316
-7.17525
-7.11609
-7.05336
-6.98622
-6.91365
-6.83462
-6.74796
-6.65268
-6.54764
-6.43181
-6.30396
-6.16299
-6.00767
-5.83687
-5.64943
-5.4443
-5.22039
-4.97669
-4.71228
-4.42638
-4.11835
-3.78765
-3.43383
-3.05652
-2.65564
-2.23127
-1.7838
-1.31376
-0.822009
-0.309571
0.222169
0.771599
1.33684
1.91579
2.50611
3.10521
3.71037
4.31877
4.92753
5.53369
6.13434
6.72672
7.30819
7.87627
8.4287
8.96354
9.47909
9.97399
10.4472
10.8978
11.3254
11.7296
12.1104
12.4678
12.8023
13.1143
13.4044
13.6735
13.9222
14.1515
14.3624
14.5559
14.7329
14.8946
15.0419
15.1757
15.2971
15.407
15.5061
15.5955
15.6758
15.7478
15.8121
15.8692
15.9196
15.9638
16.0022
16.0351
16.0628
16.0852
16.1022
16.1131
16.1171
16.1098
16.0969
16.0345
-7.88001
-7.89568
-7.91388
-7.92908
-7.94248
-7.95502
-7.96714
-7.97919
-7.99157
-8.00439
-8.01763
-8.03163
-8.04721
-8.06441
-8.08261
-8.10161
-8.12174
-8.14302
-8.16541
-8.1888
-8.21311
-8.23823
-8.26408
-8.29054
-8.31753
-8.34492
-8.37264
-8.40056
-8.42859
-8.45663
-8.48459
-8.51236
-8.53988
-8.56703
-8.59373
-8.61989
-8.64543
-8.67024
-8.69426
-8.71737
-8.73949
-8.7605
-8.78031
-8.79879
-8.81585
-8.83135
-8.84518
-8.85723
-8.86737
-8.87551
-8.88149
-8.88521
-8.88653
-8.88535
-8.88155
-8.87502
-8.86565
-8.85335
-8.83802
-8.81967
-8.79823
-8.77368
-8.74599
-8.71522
-8.68142
-8.64467
-8.60508
-8.5628
-8.51798
-8.47083
-8.42157
-8.37045
-8.31771
-8.26364
-8.20853
-8.15268
-8.0964
-8.03996
-7.98363
-7.92768
-7.87232
-7.81774
-7.76409
-7.71147
-7.65998
-7.60964
-7.56041
-7.51215
-7.46473
-7.41778
-7.37123
-7.32434
-7.27673
-7.22778
-7.17694
-7.1235
-7.06662
-7.00549
-6.93891
-6.866
-6.78537
-6.69622
-6.59715
-6.4873
-6.36518
-6.2299
-6.07997
-5.9145
-5.73205
-5.53177
-5.31231
-5.07286
-4.8123
-4.53003
-4.22521
-3.89739
-3.54592
-3.17058
-2.7711
-2.34775
-1.90075
-1.43077
-0.938529
-0.425141
0.108073
0.659446
1.22708
1.80888
2.40242
3.00512
3.61414
4.22667
4.83972
5.45027
6.05538
6.65218
7.23802
7.81033
8.36686
8.90557
9.42481
9.92315
10.3996
10.8532
11.2835
11.6903
12.0734
12.433
12.7695
13.0833
13.3751
13.6456
13.8958
14.1265
14.3386
14.5333
14.7115
14.8742
15.0225
15.1574
15.2798
15.3906
15.4907
15.5809
15.6621
15.7348
15.7997
15.8574
15.9082
15.9526
15.991
16.0235
16.0504
16.0715
16.0866
16.0948
16.0953
16.0838
16.0661
15.999
-7.90689
-7.91774
-7.93081
-7.94253
-7.95344
-7.96404
-7.97447
-7.98486
-7.9957
-8.00782
-8.02113
-8.03507
-8.05014
-8.06654
-8.08403
-8.10261
-8.12237
-8.14326
-8.16526
-8.18826
-8.21222
-8.23702
-8.26259
-8.28882
-8.31561
-8.34286
-8.37048
-8.39834
-8.42637
-8.45445
-8.4825
-8.51041
-8.53809
-8.56544
-8.59238
-8.61879
-8.64459
-8.66967
-8.69395
-8.71729
-8.73962
-8.7608
-8.78074
-8.79931
-8.81641
-8.8319
-8.84564
-8.85751
-8.86738
-8.87513
-8.8806
-8.88367
-8.8842
-8.88206
-8.87713
-8.8693
-8.85846
-8.84454
-8.82744
-8.80714
-8.78358
-8.75674
-8.72662
-8.69329
-8.65682
-8.61732
-8.57493
-8.52982
-8.48218
-8.43227
-8.38033
-8.32665
-8.27154
-8.21531
-8.1583
-8.10086
-8.04329
-7.98594
-7.92909
-7.87305
-7.81802
-7.76425
-7.71186
-7.66102
-7.61178
-7.56415
-7.51808
-7.47346
-7.42994
-7.38761
-7.34575
-7.30401
-7.26177
-7.21849
-7.17353
-7.12613
-7.07548
-7.02057
-6.9604
-6.89376
-6.81958
-6.73665
-6.64388
-6.54001
-6.4239
-6.29428
-6.14998
-5.98976
-5.81245
-5.61689
-5.40196
-5.16662
-4.90996
-4.63117
-4.32952
-4.00438
-3.65517
-3.28154
-2.88334
-2.46073
-2.01403
-1.54384
-1.0509
-0.536294
-0.00138351
0.552135
1.12236
1.70713
2.30402
2.91034
3.52326
4.13985
4.75711
5.37193
5.98133
6.58241
7.17239
7.74871
8.30905
8.85139
9.37403
9.87558
10.355
10.8114
11.2443
11.6534
12.0386
12.4002
12.7384
13.0539
13.3472
13.6192
13.8706
14.1025
14.3159
14.5116
14.6909
14.8547
15.004
15.1399
15.2632
15.3749
15.476
15.5671
15.649
15.7225
15.7881
15.8463
15.8974
15.942
15.9802
16.0124
16.0385
16.0583
16.0716
16.0773
16.0747
16.0594
16.0375
15.9665
-7.9299
-7.93615
-7.94416
-7.95207
-7.95983
-7.96792
-7.97679
-7.98647
-7.99654
-8.00733
-8.01943
-8.03279
-8.04736
-8.06308
-8.07999
-8.0981
-8.11743
-8.13791
-8.15954
-8.18221
-8.20588
-8.23044
-8.25582
-8.28192
-8.30864
-8.33587
-8.36352
-8.39148
-8.41966
-8.44794
-8.47623
-8.50441
-8.53241
-8.56009
-8.58737
-8.61412
-8.64027
-8.66568
-8.69026
-8.71388
-8.73644
-8.7578
-8.77788
-8.79652
-8.81362
-8.82904
-8.84262
-8.85423
-8.8637
-8.87089
-8.87566
-8.87787
-8.87735
-8.874
-8.86767
-8.85825
-8.84564
-8.82975
-8.81049
-8.78781
-8.76169
-8.73213
-8.69915
-8.66284
-8.62328
-8.58062
-8.53502
-8.4867
-8.43589
-8.38288
-8.32797
-8.2715
-8.21381
-8.15527
-8.09627
-8.03714
-7.9783
-7.92008
-7.86282
-7.80682
-7.75235
-7.69962
-7.64883
-7.60007
-7.55342
-7.50884
-7.46639
-7.42572
-7.38685
-7.34926
-7.31268
-7.27647
-7.24001
-7.20276
-7.16402
-7.12297
-7.07882
-7.0304
-6.97683
-6.9167
-6.84907
-6.77248
-6.68603
-6.5882
-6.47808
-6.35412
-6.21539
-6.06036
-5.8881
-5.69716
-5.48665
-5.2553
-5.0024
-4.72692
-4.42827
-4.10556
-3.7584
-3.38624
-2.98914
-2.56707
-2.12048
-1.64986
-1.15606
-0.640107
-0.10344
0.452245
1.025
1.61264
2.21271
2.82246
3.43906
4.0595
4.68067
5.29947
5.91285
6.51784
7.11159
7.69151
8.25525
8.80081
9.32644
9.83081
10.3128
10.7716
11.2068
11.6179
12.0051
12.3684
12.7083
13.0253
13.32
13.5932
13.8459
14.079
14.2934
14.4903
14.6706
14.8354
14.9858
15.1226
15.2469
15.3597
15.4616
15.5536
15.6364
15.7106
15.7768
15.8355
15.887
15.9317
15.9699
16.0016
16.027
16.0457
16.0573
16.0607
16.0552
16.0365
16.011
15.9371
-7.94845
-7.95034
-7.95356
-7.95814
-7.96352
-7.9692
-7.97546
-7.98293
-7.99175
-8.0018
-8.01301
-8.02537
-8.03898
-8.05387
-8.07007
-8.08756
-8.10634
-8.12634
-8.14754
-8.16985
-8.19324
-8.21759
-8.24284
-8.26886
-8.29559
-8.32289
-8.35068
-8.37883
-8.40726
-8.43583
-8.46445
-8.49299
-8.52136
-8.54942
-8.57709
-8.60421
-8.63072
-8.65645
-8.68132
-8.70517
-8.72792
-8.74939
-8.76952
-8.78811
-8.80506
-8.8202
-8.83339
-8.84446
-8.85325
-8.85962
-8.86339
-8.86442
-8.86254
-8.85764
-8.84956
-8.83821
-8.82343
-8.80518
-8.78334
-8.75791
-8.72883
-8.69615
-8.65989
-8.62017
-8.57709
-8.53084
-8.48163
-8.42974
-8.37543
-8.31906
-8.26095
-8.20151
-8.1411
-8.0802
-8.01915
-7.9584
-7.89841
-7.83946
-7.78204
-7.72634
-7.67277
-7.62144
-7.57265
-7.52637
-7.48276
-7.44187
-7.40341
-7.36738
-7.33338
-7.3012
-7.27028
-7.23997
-7.2097
-7.17884
-7.14662
-7.11225
-7.07474
-7.03313
-6.9862
-6.93282
-6.87166
-6.80156
-6.72124
-6.62955
-6.52521
-6.40698
-6.27357
-6.12375
-5.95626
-5.76992
-5.56356
-5.33617
-5.0868
-4.81453
-4.51858
-4.19817
-3.85276
-3.48199
-3.08579
-2.66423
-2.21769
-1.7467
-1.25211
-0.734985
-0.196782
0.360818
0.935842
1.52605
2.12895
2.7418
3.36171
3.98558
4.61024
5.23253
5.84936
6.45769
7.05466
7.63762
8.20424
8.75249
9.28067
9.78741
10.2716
10.7326
11.1697
11.5827
11.9715
12.3364
12.6778