/*--------------------------------*- C++ -*----------------------------------*\
  =========                 |
  \\      /  F ield         | OpenFOAM: The Open Source CFD Toolbox
   \\    /   O peration     | Website:  https://openfoam.org
    \\  /    A nd           | Version:  13
     \\/     M anipulation  |
\*---------------------------------------------------------------------------*/
FoamFile
{
    format      ascii;
    class       surfaceScalarField;
    location    "100";
    object      phi;
}
// * * * * * * * * * * * * * * * * * * * * * * * * * * * * * * * * * * * * * //

dimensions      [0 3 -1 0 0 0 0];

internalField   nonuniform List<scalar> 
24170
(
3.10971e-06
7.86949e-08
3.04079e-06
6.89261e-08
2.9806e-06
6.01824e-08
2.92525e-06
5.53466e-08
2.87378e-06
5.14764e-08
2.82615e-06
4.76259e-08
2.78247e-06
4.36807e-08
2.74245e-06
4.00191e-08
2.70593e-06
3.65133e-08
2.67271e-06
3.32187e-08
2.64265e-06
3.00617e-08
2.61558e-06
2.70719e-08
2.59137e-06
2.42124e-08
2.56988e-06
2.149e-08
2.55103e-06
1.88424e-08
2.53467e-06
1.63599e-08
2.52229e-06
1.23849e-08
1.14823e-08
2.5108e-06
3.42326e-06
7.26886e-08
3.4132e-06
7.89828e-08
3.40124e-06
7.2141e-08
3.38792e-06
6.86695e-08
3.37359e-06
6.58012e-08
3.35871e-06
6.25063e-08
3.34363e-06
5.87606e-08
3.32861e-06
5.50404e-08
3.31367e-06
5.14521e-08
3.29892e-06
4.79719e-08
3.2844e-06
4.45824e-08
3.27019e-06
4.12808e-08
3.25633e-06
3.80702e-08
3.2429e-06
3.4925e-08
3.22996e-06
3.17774e-08
3.2177e-06
2.86163e-08
3.20584e-06
2.42528e-08
2.15715e-08
3.19575e-06
3.67546e-06
5.97453e-08
3.67805e-06
7.63947e-08
3.67681e-06
7.3378e-08
3.67441e-06
7.10648e-08
3.67096e-06
6.9254e-08
3.66672e-06
6.67492e-08
3.66192e-06
6.35583e-08
3.65672e-06
6.02398e-08
3.65119e-06
5.69799e-08
3.64542e-06
5.37373e-08
3.63948e-06
5.05249e-08
3.63343e-06
4.73322e-08
3.62732e-06
4.41784e-08
3.6212e-06
4.10466e-08
3.61514e-06
3.7836e-08
3.60924e-06
3.45088e-08
3.60304e-06
3.04514e-08
2.67021e-08
3.59791e-06
3.93728e-06
4.78559e-08
3.94368e-06
6.99895e-08
3.94684e-06
7.02261e-08
3.94808e-06
6.98198e-08
3.94834e-06
6.89929e-08
3.94808e-06
6.70069e-08
3.9474e-06
6.42394e-08
3.94636e-06
6.12814e-08
3.94502e-06
5.83244e-08
3.94344e-06
5.53182e-08
3.94168e-06
5.22767e-08
3.93982e-06
4.91993e-08
3.9379e-06
4.60983e-08
3.93594e-06
4.3e-08
3.93397e-06
3.98036e-08
3.93203e-06
3.64581e-08
3.92982e-06
3.26545e-08
2.86852e-08
3.92784e-06
4.21727e-06
3.77123e-08
4.22464e-06
6.26221e-08
4.22931e-06
6.55577e-08
4.23247e-06
6.66582e-08
4.23472e-06
6.67368e-08
4.23644e-06
6.52878e-08
4.2377e-06
6.29774e-08
4.23855e-06
6.04324e-08
4.23915e-06
5.77193e-08
4.23958e-06
5.48881e-08
4.23987e-06
5.19824e-08
4.24007e-06
4.89992e-08
4.24019e-06
4.59825e-08
4.24023e-06
4.29572e-08
4.24021e-06
3.98228e-08
4.24014e-06
3.65324e-08
4.23984e-06
3.29515e-08
2.91697e-08
4.23935e-06
4.51716e-06
2.96405e-08
4.52476e-06
5.50206e-08
4.53004e-06
6.02784e-08
4.53423e-06
6.24695e-08
4.53765e-06
6.33169e-08
4.54047e-06
6.24705e-08
4.54283e-06
6.06112e-08
4.54487e-06
5.83907e-08
4.54666e-06
5.5934e-08
4.54824e-06
5.33063e-08
4.54972e-06
5.05003e-08
4.55107e-06
4.76553e-08
4.55223e-06
4.48193e-08
4.55332e-06
4.18685e-08
4.55434e-06
3.88029e-08
4.55525e-06
3.56162e-08
4.55595e-06
3.22513e-08
2.87217e-08
4.5564e-06
4.83898e-06
2.33832e-08
4.8462e-06
4.78019e-08
4.85172e-06
5.47547e-08
4.85645e-06
5.77364e-08
4.86058e-06
5.91903e-08
4.86414e-06
5.89028e-08
4.86727e-06
5.7486e-08
4.87008e-06
5.55798e-08
4.87263e-06
5.33754e-08
4.87499e-06
5.09486e-08
4.87716e-06
4.833e-08
4.87919e-06
4.56218e-08
4.88112e-06
4.28893e-08
4.88293e-06
4.00571e-08
4.88462e-06
3.71134e-08
4.88616e-06
3.40795e-08
4.88752e-06
3.0889e-08
2.76914e-08
4.88855e-06
5.18439e-06
1.85701e-08
5.191e-06
4.11942e-08
5.19649e-06
4.92658e-08
5.20142e-06
5.28052e-08
5.20594e-06
5.46767e-08
5.20999e-06
5.48514e-08
5.21364e-06
5.38348e-08
5.21699e-06
5.22278e-08
5.2201e-06
5.02677e-08
5.223e-06
4.80457e-08
5.22571e-06
4.56199e-08
5.22826e-06
4.30714e-08
5.23069e-06
4.04599e-08
5.23299e-06
3.776e-08
5.23513e-06
3.49651e-08
5.23711e-06
3.2099e-08
5.23884e-06
2.91618e-08
2.62321e-08
5.2403e-06
5.55503e-06
1.48739e-08
5.56097e-06
3.52599e-08
5.56629e-06
4.39371e-08
5.57123e-06
4.78677e-08
5.57591e-06
4.99948e-08
5.58024e-06
5.0518e-08
5.58424e-06
4.98393e-08
5.58796e-06
4.85006e-08
5.59146e-06
4.67666e-08
5.59477e-06
4.47445e-08
5.59788e-06
4.25069e-08
5.60082e-06
4.01271e-08
5.60362e-06
3.76595e-08
5.60627e-06
3.51087e-08
5.60875e-06
3.2481e-08
5.61105e-06
2.98032e-08
5.61311e-06
2.71045e-08
2.44363e-08
5.6149e-06
5.95263e-06
1.20208e-08
5.95789e-06
2.99979e-08
5.963e-06
3.8827e-08
5.96786e-06
4.30088e-08
5.97258e-06
4.5274e-08
5.97706e-06
4.60416e-08
5.98126e-06
4.56367e-08
5.98523e-06
4.45293e-08
5.989e-06
4.29966e-08
5.99258e-06
4.11615e-08
5.99599e-06
3.91037e-08
5.99922e-06
3.68933e-08
6.0023e-06
3.45827e-08
6.00521e-06
3.21945e-08
6.00795e-06
2.97461e-08
6.01048e-06
2.72671e-08
6.01279e-06
2.47949e-08
2.23714e-08
6.01486e-06
6.37904e-06
9.79388e-09
6.38367e-06
2.5367e-08
6.38854e-06
3.39559e-08
6.3933e-06
3.82491e-08
6.398e-06
4.05707e-08
6.40255e-06
4.14955e-08
6.40688e-06
4.13061e-08
6.41101e-06
4.03973e-08
6.41496e-06
3.90442e-08
6.41874e-06
3.73822e-08
6.42234e-06
3.54955e-08
6.42578e-06
3.34524e-08
6.42906e-06
3.13063e-08
6.43217e-06
2.90883e-08
6.43509e-06
2.68256e-08
6.4378e-06
2.45482e-08
6.44031e-06
2.22937e-08
2.00974e-08
6.44258e-06
5.74237e-06
8.25679e-09
5.74582e-06
2.19168e-08
5.74975e-06
3.00299e-08
5.7537e-06
3.43012e-08
5.75764e-06
3.66283e-08
5.7615e-06
3.76297e-08
5.76523e-06
3.75786e-08
5.76881e-06
3.68156e-08
5.77225e-06
3.56018e-08
5.77556e-06
3.40781e-08
5.77872e-06
3.23313e-08
5.78174e-06
3.04297e-08
5.78462e-06
2.8425e-08
5.78735e-06
2.63561e-08
5.78993e-06
2.42515e-08
5.79233e-06
2.21445e-08
5.79456e-06
2.00668e-08
1.80538e-08
5.7966e-06
6.99962e-06
6.79546e-09
7.00315e-06
1.83857e-08
7.00739e-06
2.57849e-08
7.0118e-06
2.98928e-08
7.01628e-06
3.21525e-08
7.02072e-06
3.3184e-08
7.02505e-06
3.32487e-08
7.02924e-06
3.2629e-08
7.03328e-06
3.15617e-08
7.03716e-06
3.01899e-08
7.04089e-06
2.8601e-08
7.04446e-06
2.68615e-08
7.04786e-06
2.50241e-08
7.05109e-06
2.31284e-08
7.05413e-06
2.12085e-08
7.05698e-06
1.92938e-08
7.05963e-06
1.74157e-08
1.56e-08
7.06208e-06
8.53223e-06
5.41026e-09
8.53578e-06
1.4842e-08
8.54029e-06
2.12675e-08
8.54515e-06
2.50313e-08
8.55018e-06
2.71285e-08
8.55524e-06
2.81225e-08
8.56022e-06
2.82638e-08
8.56507e-06
2.77742e-08
8.56978e-06
2.68583e-08
8.57432e-06
2.56509e-08
8.57868e-06
2.42407e-08
8.58285e-06
2.26879e-08
8.58683e-06
2.10457e-08
8.5906e-06
1.93529e-08
8.59416e-06
1.76446e-08
8.59751e-06
1.59483e-08
8.60063e-06
1.42906e-08
1.26933e-08
8.60354e-06
1.04005e-05
4.0914e-09
1.04041e-05
1.13281e-08
1.04088e-05
1.65262e-08
1.04141e-05
1.97305e-08
1.04197e-05
2.15426e-08
1.04254e-05
2.2416e-08
1.04311e-05
2.25735e-08
1.04367e-05
2.2189e-08
1.04421e-05
2.14203e-08
1.04474e-05
2.03904e-08
1.04524e-05
1.91762e-08
1.04573e-05
1.7839e-08
1.04619e-05
1.64207e-08
1.04663e-05
1.49639e-08
1.04704e-05
1.3496e-08
1.04743e-05
1.20467e-08
1.0478e-05
1.0634e-08
9.27708e-09
1.04814e-05
1.26781e-05
2.81593e-09
1.26816e-05
7.83636e-09
1.26865e-05
1.15868e-08
1.26922e-05
1.39957e-08
1.26984e-05
1.53738e-08
1.27048e-05
1.60252e-08
1.27112e-05
1.61275e-08
1.27176e-05
1.58056e-08
1.27239e-05
1.51744e-08
1.27299e-05
1.43255e-08
1.27358e-05
1.33283e-08
1.27414e-05
1.22293e-08
1.27467e-05
1.10694e-08
1.27518e-05
9.87829e-09
1.27566e-05
8.6855e-09
1.27612e-05
7.51015e-09
1.27654e-05
6.37254e-09
5.27985e-09
1.27694e-05
1.54544e-05
1.54589e-09
1.5458e-05
4.29071e-09
1.54632e-05
6.39881e-09
1.54694e-05
7.78188e-09
1.54762e-05
8.55741e-09
1.54834e-05
8.87678e-09
1.54906e-05
8.84469e-09
1.54979e-05
8.53767e-09
1.55051e-05
8.02386e-09
1.5512e-05
7.36109e-09
1.55188e-05
6.59543e-09
1.55252e-05
5.76214e-09
1.55314e-05
4.88916e-09
1.55373e-05
3.99971e-09
1.55428e-05
3.11368e-09
1.55481e-05
2.24728e-09
1.55531e-05
1.41356e-09
6.17822e-10
1.55577e-05
1.8839e-05
2.11417e-10
1.88428e-05
5.05971e-10
1.88484e-05
7.53578e-10
1.88553e-05
8.9337e-10
1.88629e-05
9.0415e-10
1.8871e-05
7.86889e-10
1.88793e-05
5.53326e-10
1.88876e-05
2.22882e-10
1.88958e-05
-1.85254e-10
1.89039e-05
-6.528e-10
1.89116e-05
-1.16343e-09
1.89191e-05
-1.70078e-09
1.89262e-05
-2.25101e-09
1.8933e-05
-2.80149e-09
1.89395e-05
-3.34167e-09
1.89456e-05
-3.86208e-09
1.89513e-05
-4.35487e-09
-4.81876e-09
1.89568e-05
2.29649e-05
-1.34782e-09
2.29694e-05
-3.95289e-09
2.2976e-05
-5.89426e-09
2.29841e-05
-7.20254e-09
2.29931e-05
-8.07129e-09
2.30026e-05
-8.68825e-09
2.30122e-05
-9.14478e-09
2.3022e-05
-9.49261e-09
2.30315e-05
-9.76579e-09
2.30409e-05
-9.99821e-09
2.30499e-05
-1.02031e-08
2.30586e-05
-1.03918e-08
2.30669e-05
-1.05632e-08
2.30749e-05
-1.07214e-08
2.30824e-05
-1.08622e-08
2.30895e-05
-1.09875e-08
2.30962e-05
-1.10915e-08
-1.11793e-08
2.31026e-05
1.6812e-05
-2.68143e-09
1.68158e-05
-7.66412e-09
1.68211e-05
-1.12472e-08
1.68274e-05
-1.35026e-08
1.68342e-05
-1.48973e-08
1.68413e-05
-1.57856e-08
1.68485e-05
-1.63308e-08
1.68556e-05
-1.66199e-08
1.68626e-05
-1.67461e-08
1.68694e-05
-1.67653e-08
1.68759e-05
-1.67231e-08
1.68822e-05
-1.66351e-08
1.68881e-05
-1.65221e-08
1.68938e-05
-1.63856e-08
1.68991e-05
-1.62374e-08
1.69042e-05
-1.60731e-08
1.6909e-05
-1.58998e-08
-1.57148e-08
1.69136e-05
1.4636e-05
-4.15913e-09
1.464e-05
-1.16642e-08
1.46455e-05
-1.66941e-08
1.46516e-05
-1.95972e-08
1.4658e-05
-2.12991e-08
1.46645e-05
-2.23206e-08
1.4671e-05
-2.28379e-08
1.46774e-05
-2.29955e-08
1.46836e-05
-2.29237e-08
1.46895e-05
-2.27158e-08
1.46952e-05
-2.24191e-08
1.47007e-05
-2.20695e-08
1.47058e-05
-2.16867e-08
1.47107e-05
-2.12869e-08
1.47154e-05
-2.08757e-08
1.47198e-05
-2.04593e-08
1.47239e-05
-2.00377e-08
-1.96187e-08
1.47278e-05
1.27419e-05
-5.97461e-09
1.27466e-05
-1.62781e-08
1.27523e-05
-2.24388e-08
1.27583e-05
-2.56257e-08
1.27645e-05
-2.74375e-08
1.27706e-05
-2.84484e-08
1.27766e-05
-2.88243e-08
1.27824e-05
-2.87696e-08
1.27879e-05
-2.84644e-08
1.27932e-05
-2.80069e-08
1.27982e-05
-2.74522e-08
1.2803e-05
-2.68428e-08
1.28075e-05
-2.62054e-08
1.28118e-05
-2.55607e-08
1.28158e-05
-2.49107e-08
1.28196e-05
-2.42646e-08
1.28232e-05
-2.36213e-08
-2.29903e-08
1.28266e-05
1.10934e-05
-8.40507e-09
1.10989e-05
-2.17906e-08
1.1105e-05
-2.85317e-08
1.1111e-05
-3.16278e-08
1.11169e-05
-3.33838e-08
1.11227e-05
-3.42369e-08
1.11282e-05
-3.43512e-08
1.11335e-05
-3.40221e-08
1.11385e-05
-3.34479e-08
1.11432e-05
-3.27185e-08
1.11476e-05
-3.18933e-08
1.11518e-05
-3.1019e-08
1.11557e-05
-3.01368e-08
1.11594e-05
-2.92576e-08
1.11629e-05
-2.83873e-08
1.11662e-05
-2.75225e-08
1.11692e-05
-2.66758e-08
-2.58461e-08
1.11721e-05
9.65868e-06
-1.18749e-08
9.66528e-06
-2.83909e-08
9.67165e-06
-3.48967e-08
9.67761e-06
-3.75924e-08
9.68336e-06
-3.91344e-08
9.68877e-06
-3.9642e-08
9.69379e-06
-3.93764e-08
9.69848e-06
-3.87154e-08
9.70287e-06
-3.78309e-08
9.70695e-06
-3.67985e-08
9.71073e-06
-3.56773e-08
9.71424e-06
-3.45278e-08
9.71751e-06
-3.3401e-08
9.72055e-06
-3.23031e-08
9.72338e-06
-3.12187e-08
9.72601e-06
-3.01509e-08
9.72845e-06
-2.91188e-08
-2.80963e-08
9.7307e-06
8.41047e-06
-1.69949e-08
8.41814e-06
-3.60594e-08
8.4246e-06
-4.13551e-08
8.43041e-06
-4.34037e-08
8.43577e-06
-4.44966e-08
8.44055e-06
-4.44196e-08
8.44483e-06
-4.36566e-08
8.44872e-06
-4.26094e-08
8.45225e-06
-4.13674e-08
8.45546e-06
-4.00063e-08
8.45836e-06
-3.85757e-08
8.46098e-06
-3.71517e-08
8.46338e-06
-3.5794e-08
8.46556e-06
-3.44814e-08
8.46753e-06
-3.31944e-08
8.46932e-06
-3.19373e-08
8.47094e-06
-3.07348e-08
-2.96003e-08
8.47244e-06
7.3248e-06
-2.45115e-08
7.33314e-06
-4.43993e-08
7.33932e-06
-4.75391e-08
7.34453e-06
-4.86103e-08
7.34892e-06
-4.88862e-08
7.35254e-06
-4.80406e-08
7.35558e-06
-4.66965e-08
7.35819e-06
-4.52231e-08
7.36041e-06
-4.35918e-08
7.36235e-06
-4.19425e-08
7.36407e-06
-4.02965e-08
7.36553e-06
-3.86149e-08
7.3667e-06
-3.69653e-08
7.36763e-06
-3.54117e-08
7.3684e-06
-3.39622e-08
7.36904e-06
-3.25732e-08
7.36954e-06
-3.12357e-08
-2.99631e-08
7.3699e-06
6.38058e-06
-3.50272e-08
6.38851e-06
-5.23249e-08
6.39351e-06
-5.25451e-08
6.39702e-06
-5.21183e-08
6.39943e-06
-5.12944e-08
6.40115e-06
-4.97637e-08
6.40213e-06
-4.76755e-08
6.40262e-06
-4.5719e-08
6.40283e-06
-4.38005e-08
6.40278e-06
-4.18951e-08
6.40251e-06
-4.00243e-08
6.40207e-06
-3.81802e-08
6.4015e-06
-3.63928e-08
6.40078e-06
-3.46897e-08
6.3999e-06
-3.30874e-08
6.39889e-06
-3.15614e-08
6.39776e-06
-3.01082e-08
-2.87088e-08
6.39651e-06
5.55803e-06
-4.75971e-08
5.56349e-06
-5.7782e-08
5.5651e-06
-5.41583e-08
5.56459e-06
-5.16006e-08
5.56318e-06
-4.98892e-08
5.56114e-06
-4.77289e-08
5.55862e-06
-4.5157e-08
5.55568e-06
-4.27785e-08
5.55242e-06
-4.05393e-08
5.54892e-06
-3.83953e-08
5.54525e-06
-3.63503e-08
5.54146e-06
-3.4392e-08
5.5376e-06
-3.25332e-08
5.53368e-06
-3.07758e-08
5.52972e-06
-2.91266e-08
5.52571e-06
-2.75582e-08
5.52169e-06
-2.60815e-08
-2.46214e-08
5.5176e-06
4.8367e-06
-5.66927e-08
4.83074e-06
-5.18199e-08
4.82245e-06
-4.58657e-08
4.81309e-06
-4.22469e-08
4.8027e-06
-3.9496e-08
4.79181e-06
-3.68452e-08
4.78083e-06
-3.41767e-08
4.76982e-06
-3.17674e-08
4.75887e-06
-2.95876e-08
4.74804e-06
-2.75739e-08
4.7374e-06
-2.57068e-08
4.72699e-06
-2.39846e-08
4.71684e-06
-2.23833e-08
4.70696e-06
-2.08955e-08
4.69734e-06
-1.9511e-08
4.68799e-06
-1.82107e-08
4.67889e-06
-1.69825e-08
-1.55408e-08
4.66982e-06
4.14598e-06
4.09416e-06
4.0483e-06
4.00605e-06
3.96655e-06
3.92971e-06
3.89553e-06
3.86376e-06
3.83418e-06
3.8066e-06
3.7809e-06
3.75691e-06
3.73453e-06
3.71363e-06
3.69412e-06
3.67591e-06
3.65893e-06
3.64339e-06
2.86328e-08
-2.8742e-08
5.24775e-08
-2.39869e-08
6.50805e-08
-1.26832e-08
6.59043e-08
-9.098e-10
5.62027e-08
9.63968e-09
3.91303e-08
1.70248e-08
1.69574e-08
2.21089e-08
-9.69269e-09
2.66404e-08
-4.09501e-08
3.1154e-08
-7.5059e-08
3.41071e-08
-1.08668e-07
3.34462e-08
-1.47343e-07
3.86735e-08
-1.94478e-07
4.69718e-08
-2.50909e-07
5.64132e-08
-3.14923e-07
6.38612e-08
-3.82937e-07
6.79889e-08
-4.5044e-07
6.73592e-08
-5.16499e-07
6.60366e-08
-5.82504e-07
6.58793e-08
-6.47558e-07
6.50423e-08
-7.11359e-07
6.36863e-08
-7.73465e-07
6.21061e-08
-8.33968e-07
6.04035e-08
-8.92614e-07
5.86558e-08
-9.49628e-07
5.69198e-08
-1.00493e-06
5.53058e-08
-1.05882e-06
5.37924e-08
-1.11114e-06
5.23216e-08
-1.16214e-06
5.0892e-08
-1.21167e-06
4.95209e-08
-1.25999e-06
4.81989e-08
-1.30695e-06
4.69411e-08
-1.35281e-06
4.57373e-08
-1.39743e-06
4.45993e-08
-1.44108e-06
4.35147e-08
-1.48361e-06
4.24949e-08
-1.52527e-06
4.15251e-08
-1.56592e-06
4.06159e-08
-1.60579e-06
3.97508e-08
-1.64476e-06
3.89403e-08
-1.68304e-06
3.81671e-08
-1.7205e-06
3.74414e-08
-1.75734e-06
3.67455e-08
-1.79346e-06
3.60897e-08
-1.82901e-06
3.5456e-08
-1.86389e-06
3.48546e-08
-1.89825e-06
3.42677e-08
-1.93199e-06
3.37055e-08
-1.96523e-06
3.31536e-08
-1.99789e-06
3.26278e-08
-2.0301e-06
3.21265e-08
-2.06176e-06
3.16313e-08
-2.09294e-06
3.10884e-08
-2.12355e-06
3.05761e-08
-2.15372e-06
3.00741e-08
-2.18336e-06
2.95824e-08
-2.21255e-06
2.90872e-08
-2.24122e-06
2.85995e-08
-2.26944e-06
2.81059e-08
-2.29714e-06
2.76217e-08
-2.32439e-06
2.71361e-08
-2.35114e-06
2.66618e-08
-2.37744e-06
2.6189e-08
-2.40328e-06
2.57298e-08
-2.42866e-06
2.52764e-08
-2.45361e-06
2.484e-08
-2.47813e-06
2.44143e-08
-2.50224e-06
2.40089e-08
-2.52595e-06
2.36195e-08
-2.5493e-06
2.32529e-08
-2.57228e-06
2.29064e-08
-2.59496e-06
2.25851e-08
-2.61731e-06
2.22876e-08
-2.63942e-06
2.20147e-08
-2.66125e-06
2.17671e-08
-2.68291e-06
2.15429e-08
-2.70432e-06
2.13436e-08
-2.72561e-06
2.1167e-08
-2.74669e-06
2.10151e-08
-2.7677e-06
2.08783e-08
-2.78853e-06
2.07625e-08
-2.80931e-06
2.06604e-08
-2.82995e-06
2.05814e-08
-2.85057e-06
2.05036e-08
-2.87104e-06
2.04255e-08
-2.89147e-06
2.03304e-08
-2.91172e-06
2.02325e-08
-2.93183e-06
2.01086e-08
-2.95171e-06
1.99553e-08
-2.97132e-06
1.97684e-08
-2.99069e-06
1.95025e-08
-3.00971e-06
1.91579e-08
-3.02832e-06
1.87178e-08
-3.04639e-06
1.81855e-08
-3.06383e-06
1.75476e-08
-3.08052e-06
1.67976e-08
-3.09635e-06
1.59179e-08
-3.11117e-06
1.49008e-08
-3.12486e-06
1.37262e-08
-3.13722e-06
1.2381e-08
-3.1481e-06
1.08453e-08
-3.15734e-06
9.12814e-09
-3.1648e-06
7.26516e-09
-3.17028e-06
5.19274e-09
-3.17349e-06
2.87823e-09
-3.1742e-06
3.36439e-10
-3.1722e-06
-2.35383e-09
-3.16742e-06
-5.14649e-09
-3.15973e-06
-7.99397e-09
-3.1489e-06
-1.11496e-08
-3.13466e-06
-1.4488e-08
-3.1169e-06
-1.80361e-08
-3.09539e-06
-2.16946e-08
-3.07003e-06
-2.55668e-08
-3.04053e-06
-2.96217e-08
-3.00685e-06
-3.38314e-08
-2.96876e-06
-3.81644e-08
-2.92618e-06
-4.26381e-08
-2.87902e-06
-4.71069e-08
-2.82731e-06
-5.17115e-08
-2.77092e-06
-5.64011e-08
-2.70989e-06
-6.11899e-08
-2.64408e-06
-6.59572e-08
-2.57352e-06
-7.07208e-08
-2.49814e-06
-7.54054e-08
-2.41808e-06
-8.00345e-08
-2.33338e-06
-8.45285e-08
-2.24426e-06
-8.89123e-08
-2.15082e-06
-9.31065e-08
-2.05335e-06
-9.7129e-08
-1.95201e-06
-1.00908e-07
-1.84712e-06
-1.04452e-07
-1.73892e-06
-1.07711e-07
-1.62775e-06
-1.10693e-07
-1.51388e-06
-1.13376e-07
-1.39762e-06
-1.1578e-07
-1.27923e-06
-1.17914e-07
-1.159e-06
-1.19806e-07
-1.03718e-06
-1.21453e-07
-9.14029e-07
-1.22864e-07
-7.8977e-07
-1.24036e-07
-6.64702e-07
-1.24935e-07
-5.40014e-07
-1.24611e-07
-4.17407e-07
-1.22604e-07
-2.96474e-07
-1.20971e-07
-1.75564e-07
-1.21e-07
-5.34258e-08
-1.22251e-07
6.86059e-08
-1.22172e-07
1.89585e-07
-1.21123e-07
3.08396e-07
-1.18969e-07
4.2515e-07
-1.1691e-07
5.39581e-07
-1.14596e-07
6.50168e-07
-1.10747e-07
7.56384e-07
-1.06379e-07
8.58318e-07
-1.0209e-07
9.56049e-07
-9.78862e-08
1.04967e-06
-9.37722e-08
1.13926e-06
-8.97239e-08
1.2249e-06
-8.57786e-08
1.30673e-06
-8.19472e-08
1.38482e-06
-7.82092e-08
1.45927e-06
-7.45506e-08
1.53016e-06
-7.09911e-08
1.59762e-06
-6.75422e-08
1.66174e-06
-6.41964e-08
1.7226e-06
-6.09256e-08
1.78027e-06
-5.77372e-08
1.83484e-06
-5.46256e-08
1.88637e-06
-5.15799e-08
1.9349e-06
-4.8571e-08
1.98042e-06
-4.55645e-08
2.02287e-06
-4.24868e-08
2.06206e-06
-3.92322e-08
2.09765e-06
-3.56128e-08
2.12893e-06
-3.13237e-08
2.1546e-06
-2.57161e-08
2.17222e-06
-1.76668e-08
2.1756e-06
-3.41976e-09
2.15067e-06
2.48804e-08
9.0629e-08
2.06002e-06
1.66002e-08
-4.5436e-08
1.87414e-08
-2.62288e-08
1.2044e-08
-6.03961e-09
-2.30919e-10
1.13148e-08
-1.71622e-08
2.65324e-08
-3.97015e-08
3.95356e-08
-6.85177e-08
5.08887e-08
-1.03205e-07
6.13121e-08
-1.43353e-07
7.126e-08
-1.89471e-07
8.0211e-08
-2.43127e-07
8.70507e-08
-2.98869e-07
9.44e-08
-3.54325e-07
1.02373e-07
-4.08086e-07
1.10153e-07
-4.60854e-07
1.16575e-07
-5.13848e-07
1.2096e-07
-5.69419e-07
1.22878e-07
-6.26232e-07
1.22826e-07
-6.82341e-07
1.21941e-07
-7.37768e-07
1.20451e-07
-7.92531e-07
1.18406e-07
-8.46449e-07
1.16008e-07
-8.99483e-07
1.13399e-07
-9.51517e-07
1.10679e-07
-1.00256e-06
1.07924e-07
-1.05246e-06
1.05185e-07
-1.10119e-06
1.02485e-07
-1.14872e-06
9.9837e-08
-1.19513e-06
9.72539e-08
-1.24038e-06
9.475e-08
-1.28456e-06
9.23322e-08
-1.32765e-06
9.00097e-08
-1.36975e-06
8.77855e-08
-1.41085e-06
8.56642e-08
-1.45103e-06
8.36441e-08
-1.49029e-06
8.17267e-08
-1.52873e-06
7.99071e-08
-1.56633e-06
7.81842e-08
-1.60318e-06
7.65509e-08
-1.63927e-06
7.50047e-08
-1.67469e-06
7.3537e-08
-1.70941e-06
7.21445e-08
-1.74353e-06
7.08178e-08
-1.77702e-06
6.95534e-08
-1.80994e-06
6.83417e-08
-1.8423e-06
6.71792e-08
-1.87413e-06
6.60562e-08
-1.90542e-06
6.49695e-08
-1.93621e-06
6.39079e-08
-1.96649e-06
6.2874e-08
-1.99632e-06
6.19193e-08
-2.02568e-06
6.09583e-08
-2.05456e-06
5.99328e-08
-2.08296e-06
5.89424e-08
-2.11091e-06
5.79751e-08
-2.13839e-06
5.70176e-08
-2.16542e-06
5.6064e-08
-2.19198e-06
5.51168e-08
-2.21811e-06
5.41713e-08
-2.24377e-06
5.32332e-08
-2.269e-06
5.23012e-08
-2.29377e-06
5.13812e-08
-2.31812e-06
5.04721e-08
-2.34203e-06
4.95805e-08
-2.36552e-06
4.87067e-08
-2.3886e-06
4.78579e-08
-2.41128e-06
4.70347e-08
-2.43357e-06
4.62444e-08
-2.4555e-06
4.54879e-08
-2.47707e-06
4.47717e-08
-2.49831e-06
4.40968e-08
-2.51924e-06
4.34679e-08
-2.53989e-06
4.2885e-08
-2.56027e-06
4.23509e-08
-2.58041e-06
4.18634e-08
-2.60035e-06
4.14227e-08
-2.62009e-06
4.10282e-08
-2.63966e-06
4.06776e-08
-2.65906e-06
4.03668e-08
-2.67833e-06
4.00902e-08
-2.69747e-06
3.9845e-08
-2.71649e-06
3.9626e-08
-2.73539e-06
3.94299e-08
-2.75418e-06
3.92383e-08
-2.77283e-06
3.90321e-08
-2.79134e-06
3.87985e-08
-2.80966e-06
3.85322e-08
-2.82777e-06
3.82107e-08
-2.84559e-06
3.78305e-08
-2.86308e-06
3.7347e-08
-2.88023e-06
3.67346e-08
-2.89696e-06
3.59612e-08
-2.91317e-06
3.49985e-08
-2.92877e-06
3.38465e-08
-2.94363e-06
3.2476e-08
-2.95765e-06
3.08768e-08
-2.9707e-06
2.9013e-08
-2.98264e-06
2.68762e-08
-2.99333e-06
2.44298e-08
-3.00262e-06
2.16678e-08
-3.01038e-06
1.85536e-08
-3.01641e-06
1.50692e-08
-3.02051e-06
1.12006e-08
-3.02249e-06
6.96551e-09
-3.02219e-06
2.33348e-09
-3.01942e-06
-2.67057e-09
-3.01399e-06
-8.0408e-09
-3.00561e-06
-1.37436e-08
-2.99408e-06
-1.97496e-08
-2.97924e-06
-2.61778e-08
-2.96091e-06
-3.30026e-08
-2.93887e-06
-4.02216e-08
-2.91299e-06
-4.77269e-08
-2.88311e-06
-5.55551e-08
-2.84907e-06
-6.37682e-08
-2.81073e-06
-7.22431e-08
-2.76798e-06
-8.09739e-08
-2.72066e-06
-8.99704e-08
-2.66864e-06
-9.91143e-08
-2.6119e-06
-1.08432e-07
-2.55046e-06
-1.17885e-07
-2.48423e-06
-1.27508e-07
-2.41317e-06
-1.37148e-07
-2.33723e-06
-1.46746e-07
-2.25645e-06
-1.56226e-07
-2.17089e-06
-1.65565e-07
-2.08067e-06
-1.7467e-07
-1.98594e-06
-1.83511e-07
-1.88686e-06
-1.92004e-07
-1.78367e-06
-2.00116e-07
-1.67657e-06
-2.07764e-07
-1.56586e-06
-2.14913e-07
-1.45181e-06
-2.21499e-07
-1.33474e-06
-2.275e-07
-1.21497e-06
-2.32881e-07
-1.09285e-06
-2.37641e-07
-9.68745e-07
-2.41779e-07
-8.43028e-07
-2.45317e-07
-7.16077e-07
-2.48228e-07
-5.88318e-07
-2.50501e-07
-4.60187e-07
-2.52074e-07
-3.32308e-07
-2.52768e-07
-2.04959e-07
-2.51935e-07
-7.76151e-08
-2.49963e-07
4.98338e-08
-2.48446e-07
1.75965e-07
-2.47188e-07
2.99229e-07
-2.45573e-07
4.19505e-07
-2.42527e-07
5.3647e-07
-2.38166e-07
6.50725e-07
-2.33316e-07
7.61908e-07
-2.28182e-07
8.69728e-07
-2.22516e-07
9.74469e-07
-2.15582e-07
1.07594e-06
-2.07954e-07
1.17389e-06
-2.00133e-07
1.26821e-06
-1.92308e-07
1.35888e-06
-1.84536e-07
1.44591e-06
-1.76857e-07
1.52935e-06
-1.693e-07
1.60923e-06
-1.61916e-07
1.68562e-06
-1.54681e-07
1.7586e-06
-1.47614e-07
1.82826e-06
-1.4072e-07
1.89468e-06
-1.34025e-07
1.95794e-06
-1.27508e-07
2.0181e-06
-1.21148e-07
2.07526e-06
-1.14939e-07
2.12947e-06
-1.08881e-07
2.18079e-06
-1.02942e-07
2.22927e-06
-9.70812e-08
2.27489e-06
-9.12192e-08
2.31761e-06
-8.52324e-08
2.35726e-06
-7.89151e-08
2.39357e-06
-7.19476e-08
2.42598e-06
-6.37673e-08
2.4536e-06
-5.33628e-08
2.47461e-06
-3.87202e-08
2.48639e-06
-1.52265e-08
2.48398e-06
2.72562e-08
1.10607e-07
2.464e-06
-7.29151e-09
-3.82192e-08
-2.28406e-08
-1.07489e-08
-4.22938e-08
1.33769e-08
-6.51411e-08
3.41312e-08
-9.13096e-08
5.2676e-08
-1.2129e-07
6.9498e-08
-1.55369e-07
8.49458e-08
-1.93365e-07
9.9298e-08
-2.34763e-07
1.12635e-07
-2.79243e-07
1.24682e-07
-3.27265e-07
1.35049e-07
-3.77088e-07
1.44212e-07
-4.27088e-07
1.52347e-07
-4.76219e-07
1.59273e-07
-5.24358e-07
1.64686e-07
-5.71799e-07
1.68388e-07
-6.19258e-07
1.70309e-07
-6.67104e-07
1.70659e-07
-7.15008e-07
1.69817e-07
-7.62672e-07
1.68102e-07
-8.10021e-07
1.65729e-07
-8.56912e-07
1.62886e-07
-9.03266e-07
1.59728e-07
-9.48966e-07
1.56367e-07
-9.93957e-07
1.5289e-07
-1.03814e-06
1.49359e-07
-1.08151e-06
1.45819e-07
-1.12399e-06
1.42308e-07
-1.16562e-06
1.38852e-07
-1.20636e-06
1.35474e-07
-1.24625e-06
1.32192e-07
-1.28527e-06
1.29018e-07
-1.32348e-06
1.25963e-07
-1.36087e-06
1.23032e-07
-1.39748e-06
1.20228e-07
-1.43333e-06
1.17554e-07
-1.46846e-06
1.15006e-07
-1.50287e-06
1.12583e-07
-1.53663e-06
1.10279e-07
-1.56973e-06
1.08089e-07
-1.60222e-06
1.06005e-07
-1.63412e-06
1.04021e-07
-1.66545e-06
1.02127e-07
-1.69623e-06
1.00317e-07
-1.72649e-06
9.85799e-08
-1.75624e-06
9.69095e-08
-1.78551e-06
9.52967e-08
-1.8143e-06
9.37346e-08
-1.84263e-06
9.22163e-08
-1.87052e-06
9.07398e-08
-1.89793e-06
8.93077e-08
-1.92487e-06
8.78785e-08
-1.95141e-06
8.6445e-08
-1.97752e-06
8.50264e-08
-2.0032e-06
8.36252e-08
-2.02845e-06
8.22352e-08
-2.05327e-06
8.08524e-08
-2.07767e-06
7.94761e-08
-2.10164e-06
7.81052e-08
-2.12518e-06
7.6742e-08
-2.1483e-06
7.53886e-08
-2.17101e-06
7.40488e-08
-2.1933e-06
7.27257e-08
-2.21518e-06
7.14247e-08
-2.23666e-06
7.01503e-08
-2.25775e-06
6.89085e-08
-2.27846e-06
6.77046e-08
-2.2988e-06
6.6545e-08
-2.31878e-06
6.54349e-08
-2.33842e-06
6.43802e-08
-2.35774e-06
6.33853e-08
-2.37676e-06
6.24551e-08
-2.3955e-06
6.15922e-08
-2.41398e-06
6.0798e-08
-2.43222e-06
6.00728e-08
-2.45025e-06
5.94159e-08
-2.46808e-06
5.88249e-08
-2.48573e-06
5.82962e-08
-2.50322e-06
5.78234e-08
-2.52057e-06
5.73993e-08
-2.53778e-06
5.70169e-08
-2.55485e-06
5.66677e-08
-2.5718e-06
5.63407e-08
-2.58861e-06
5.60154e-08
-2.60528e-06
5.56681e-08
-2.62178e-06
5.5279e-08
-2.6381e-06
5.48299e-08
-2.65419e-06
5.42994e-08
-2.66999e-06
5.36565e-08
-2.68546e-06
5.28732e-08
-2.70056e-06
5.18937e-08
-2.71524e-06
5.06781e-08
-2.7294e-06
4.9202e-08
-2.74296e-06
4.74286e-08
-2.75578e-06
4.53408e-08
-2.76778e-06
4.28944e-08
-2.77881e-06
4.00683e-08
-2.78875e-06
3.6819e-08
-2.79745e-06
3.31256e-08
-2.80476e-06
2.8947e-08
-2.81051e-06
2.42519e-08
-2.81454e-06
1.90032e-08
-2.81669e-06
1.31957e-08
-2.81674e-06
6.85419e-09
-2.81455e-06
-5.51927e-11
-2.80987e-06
-7.52825e-09
-2.80251e-06
-1.55897e-08
-2.79222e-06
-2.41829e-08
-2.77885e-06
-3.32898e-08
-2.76218e-06
-4.29719e-08
-2.74207e-06
-5.32541e-08
-2.7183e-06
-6.40913e-08
-2.69074e-06
-7.53977e-08
-2.65919e-06
-8.71698e-08
-2.62357e-06
-9.94755e-08
-2.58367e-06
-1.12186e-07
-2.53938e-06
-1.253e-07
-2.49054e-06
-1.38807e-07
-2.43707e-06
-1.52582e-07
-2.37891e-06
-1.6658e-07
-2.31606e-06
-1.80779e-07
-2.24846e-06
-1.95176e-07
-2.17607e-06
-2.09637e-07
-2.09885e-06
-2.24028e-07
-2.01684e-06
-2.38269e-07
-1.93011e-06
-2.52269e-07
-1.83878e-06
-2.65942e-07
-1.74299e-06
-2.79192e-07
-1.64294e-06
-2.91932e-07
-1.53883e-06
-3.0407e-07
-1.43092e-06
-3.15516e-07
-1.31946e-06
-3.26185e-07
-1.20477e-06
-3.36001e-07
-1.08718e-06
-3.44902e-07
-9.67037e-07
-3.52838e-07
-8.44719e-07
-3.59778e-07
-7.20626e-07
-3.65709e-07
-5.9517e-07
-3.70626e-07
-4.68774e-07
-3.74507e-07
-3.41863e-07
-3.7731e-07
-2.14871e-07
-3.78991e-07
-8.81208e-08
-3.79449e-07
3.83375e-08
-3.78347e-07
1.643e-07
-3.75883e-07
2.88832e-07
-3.72955e-07
4.11162e-07
-3.69496e-07
5.30726e-07
-3.65127e-07
6.47518e-07
-3.59308e-07
7.61528e-07
-3.52176e-07
8.7257e-07
-3.44354e-07
9.8036e-07
-3.35977e-07
1.0847e-06
-3.26859e-07
1.1858e-06
-3.16687e-07
1.28363e-06
-3.05789e-07
1.37805e-06
-2.94564e-07
1.46897e-06
-2.83236e-07
1.55635e-06
-2.71932e-07
1.64021e-06
-2.60722e-07
1.72056e-06
-2.49663e-07
1.79746e-06
-2.38819e-07
1.87098e-06
-2.28213e-07
1.94122e-06
-2.17852e-07
2.00824e-06
-2.07748e-07
2.07213e-06
-1.97917e-07
2.13297e-06
-1.88352e-07
2.19085e-06
-1.79023e-07
2.24584e-06
-1.69926e-07
2.298e-06
-1.61046e-07
2.34741e-06
-1.52348e-07
2.3941e-06
-1.43763e-07
2.43806e-06
-1.35186e-07
2.47927e-06
-1.26433e-07
2.51758e-06
-1.17232e-07
2.55278e-06
-1.07142e-07
2.58444e-06
-9.54313e-08
2.61191e-06
-8.08364e-08
2.63412e-06
-6.09446e-08
2.64999e-06
-3.1098e-08
2.65954e-06
1.76923e-08
1.03038e-07
2.66712e-06
-2.55929e-08
-1.26891e-08
-5.39598e-08
1.7568e-08
-8.34188e-08
4.28084e-08
-1.14252e-07
6.49424e-08
-1.46714e-07
8.51193e-08
-1.81046e-07
1.03818e-07
-2.17346e-07
1.21229e-07
-2.55453e-07
1.37397e-07
-2.95079e-07
1.52244e-07
-3.35983e-07
1.65578e-07
-3.78163e-07
1.77211e-07
-4.21119e-07
1.87161e-07
-4.64259e-07
1.95469e-07
-5.07111e-07
2.02117e-07
-5.49512e-07
2.07068e-07
-5.91466e-07
2.10334e-07
-6.3318e-07
2.12002e-07
-6.74802e-07
2.12272e-07
-7.16386e-07
2.11381e-07
-7.57855e-07
2.09562e-07
-7.99161e-07
2.07014e-07
-8.402e-07
2.03915e-07
-8.80905e-07
2.00412e-07
-9.21174e-07
1.96624e-07
-9.60952e-07
1.92646e-07
-1.00016e-06
1.88554e-07
-1.03877e-06
1.84405e-07
-1.07672e-06
1.8025e-07
-1.11402e-06
1.76126e-07
-1.15063e-06
1.72066e-07
-1.18655e-06
1.68095e-07
-1.22178e-06
1.64235e-07
-1.25634e-06
1.605e-07
-1.29022e-06
1.56899e-07
-1.32345e-06
1.5344e-07
-1.35604e-06
1.50126e-07
-1.38801e-06
1.46956e-07
-1.41937e-06
1.4393e-07
-1.45015e-06
1.41042e-07
-1.48036e-06
1.38288e-07
-1.51003e-06
1.35659e-07
-1.53917e-06
1.33149e-07
-1.56781e-06
1.30747e-07
-1.59595e-06
1.28445e-07
-1.62362e-06
1.26233e-07
-1.65082e-06
1.241e-07
-1.67758e-06
1.22038e-07
-1.7039e-06
1.20037e-07
-1.7298e-06
1.18089e-07
-1.75526e-06
1.16185e-07
-1.78029e-06
1.14318e-07
-1.8049e-06
1.1247e-07
-1.82911e-06
1.10634e-07
-1.85292e-06
1.0881e-07
-1.87632e-06
1.07e-07
-1.89931e-06
1.05201e-07
-1.92189e-06
1.03408e-07
-1.94406e-06
1.01621e-07
-1.96583e-06
9.98408e-08
-1.98718e-06
9.80683e-08
-2.00812e-06
9.6307e-08
-2.02866e-06
9.45612e-08
-2.0488e-06
9.28359e-08
-2.06854e-06
9.11371e-08
-2.08789e-06
8.94715e-08
-2.10686e-06
8.78464e-08
-2.12545e-06
8.62692e-08
-2.14368e-06
8.47478e-08
-2.16156e-06
8.32897e-08
-2.17911e-06
8.19021e-08
-2.19634e-06
8.05916e-08
-2.21328e-06
7.93635e-08
-2.22993e-06
7.82222e-08
-2.24633e-06
7.71706e-08
-2.26249e-06
7.62089e-08
-2.27843e-06
7.53359e-08
-2.29418e-06
7.45494e-08
-2.30976e-06
7.38433e-08
-2.32517e-06
7.321e-08
-2.34044e-06
7.26395e-08
-2.35557e-06
7.21212e-08
-2.37057e-06
7.16417e-08
-2.38544e-06
7.11843e-08
-2.40017e-06
7.07258e-08
-2.41477e-06
7.02388e-08
-2.42921e-06
6.96969e-08
-2.44346e-06
6.90729e-08
-2.4575e-06
6.83331e-08
-2.47127e-06
6.74484e-08
-2.48472e-06
6.63565e-08
-2.49782e-06
6.5025e-08
-2.5105e-06
6.33892e-08
-2.52269e-06
6.14119e-08
-2.53429e-06
5.90483e-08
-2.5452e-06
5.62638e-08
-2.55531e-06
5.30088e-08
-2.56449e-06
4.92468e-08
-2.57261e-06
4.49283e-08
-2.57952e-06
4.00177e-08
-2.58509e-06
3.44661e-08
-2.58914e-06
2.82326e-08
-2.59153e-06
2.12835e-08
-2.59209e-06
1.36068e-08
-2.59061e-06
5.21394e-09
-2.58691e-06
-3.92579e-09
-2.58078e-06
-1.3823e-08
-2.57202e-06
-2.44982e-08
-2.56044e-06
-3.59022e-08
-2.54582e-06
-4.80287e-08
-2.52801e-06
-6.09008e-08
-2.50682e-06
-7.45458e-08
-2.4821e-06
-8.89032e-08
-2.45366e-06
-1.0392e-07
-2.42132e-06
-1.1957e-07
-2.38497e-06
-1.35886e-07
-2.34442e-06
-1.52765e-07
-2.29955e-06
-1.70191e-07
-2.25025e-06
-1.88105e-07
-2.19642e-06
-2.06406e-07
-2.13799e-06
-2.25003e-07
-2.07494e-06