/*--------------------------------*- C++ -*----------------------------------*\
  =========                 |
  \\      /  F ield         | OpenFOAM: The Open Source CFD Toolbox
   \\    /   O peration     | Website:  https://openfoam.org
    \\  /    A nd           | Version:  13
     \\/     M anipulation  |
\*---------------------------------------------------------------------------*/
FoamFile
{
    format      ascii;
    class       volVectorField;
    location    "100";
    object      U;
}
// * * * * * * * * * * * * * * * * * * * * * * * * * * * * * * * * * * * * * //

dimensions      [0 1 -1 0 0 0 0];

internalField   nonuniform List<vector> 
12225
(
(9.81626 -0.00911896 0)
(9.6417 0.0111606 0)
(9.44852 0.0240151 0)
(9.26141 0.0303149 0)
(9.09177 0.0328757 0)
(8.93655 0.0328362 0)
(8.79395 0.0317107 0)
(8.66273 0.030229 0)
(8.54243 0.0285334 0)
(8.4334 0.0267946 0)
(8.33384 0.0249699 0)
(8.24466 0.0231642 0)
(8.16385 0.0213482 0)
(8.09262 0.0195139 0)
(8.02899 0.0175394 0)
(7.9743 0.0158908 0)
(7.92658 0.0120022 0)
(7.9062 0.0178838 0)
(10.0006 0.0579314 0)
(10.0059 0.0613481 0)
(9.9773 0.0549718 0)
(9.93594 0.0501926 0)
(9.89346 0.047296 0)
(9.85095 0.0455222 0)
(9.80727 0.0437294 0)
(9.763 0.042052 0)
(9.7192 0.0405 0)
(9.67549 0.0389433 0)
(9.63283 0.0373624 0)
(9.59052 0.0356935 0)
(9.54966 0.033957 0)
(9.50943 0.0321302 0)
(9.47101 0.0301563 0)
(9.43379 0.0279938 0)
(9.39857 0.0240373 0)
(9.36564 0.0220633 0)
(10.0116 0.042636 0)
(10.0427 0.0527971 0)
(10.0446 0.0500375 0)
(10.0374 0.0497476 0)
(10.028 0.0503803 0)
(10.0177 0.0505233 0)
(10.0055 0.0500844 0)
(9.9917 0.0493552 0)
(9.977 0.0484824 0)
(9.96145 0.0474646 0)
(9.94554 0.0463123 0)
(9.92902 0.0450202 0)
(9.91251 0.0435685 0)
(9.89566 0.0419113 0)
(9.87906 0.0399815 0)
(9.86261 0.0377651 0)
(9.84638 0.0342605 0)
(9.82974 0.0305891 0)
(10.0107 0.0343694 0)
(10.0393 0.0471561 0)
(10.054 0.0488071 0)
(10.0578 0.0503736 0)
(10.0582 0.0518383 0)
(10.0583 0.0523677 0)
(10.0573 0.0521361 0)
(10.0551 0.0516572 0)
(10.0519 0.051033 0)
(10.0482 0.0502975 0)
(10.0439 0.0494132 0)
(10.0393 0.0483592 0)
(10.0344 0.047153 0)
(10.0295 0.0458184 0)
(10.0244 0.0442024 0)
(10.0194 0.042186 0)
(10.0143 0.0391909 0)
(10.0084 0.0358046 0)
(10.0084 0.0262311 0)
(10.0325 0.0441497 0)
(10.0496 0.0466157 0)
(10.0577 0.0489141 0)
(10.0631 0.0506957 0)
(10.0676 0.051403 0)
(10.0715 0.0514666 0)
(10.0739 0.0513441 0)
(10.0755 0.0510746 0)
(10.0767 0.0505659 0)
(10.0775 0.04988 0)
(10.0782 0.0489811 0)
(10.0785 0.0478295 0)
(10.0787 0.0464998 0)
(10.0787 0.0448763 0)
(10.0786 0.0428556 0)
(10.0782 0.0401563 0)
(10.0771 0.0368998 0)
(10.0059 0.0210064 0)
(10.0253 0.0383928 0)
(10.0421 0.0432679 0)
(10.0522 0.0462513 0)
(10.0597 0.0484895 0)
(10.0665 0.0496313 0)
(10.0724 0.0500217 0)
(10.0773 0.0500833 0)
(10.0814 0.0498904 0)
(10.0852 0.0494774 0)
(10.0884 0.0487753 0)
(10.0918 0.0479143 0)
(10.0944 0.0469639 0)
(10.0969 0.0457471 0)
(10.0992 0.0441883 0)
(10.1014 0.0422322 0)
(10.1032 0.0397848 0)
(10.1045 0.0368289 0)
(10.0041 0.0165743 0)
(10.0189 0.0335441 0)
(10.0344 0.0393759 0)
(10.0451 0.0429074 0)
(10.0535 0.045587 0)
(10.0614 0.0470809 0)
(10.0684 0.0477391 0)
(10.0745 0.0479953 0)
(10.08 0.0479522 0)
(10.0851 0.0476426 0)
(10.0897 0.0470709 0)
(10.0941 0.0462717 0)
(10.0982 0.045301 0)
(10.102 0.0440699 0)
(10.1057 0.0425352 0)
(10.109 0.0406833 0)
(10.112 0.0383472 0)
(10.1147 0.0356779 0)
(10.0029 0.0131191 0)
(10.0141 0.0290136 0)
(10.0276 0.0355316 0)
(10.0381 0.0394068 0)
(10.0467 0.0423248 0)
(10.0548 0.044076 0)
(10.0623 0.0449475 0)
(10.0691 0.0453518 0)
(10.0753 0.0454228 0)
(10.0811 0.0451979 0)
(10.0865 0.0446866 0)
(10.0915 0.0439502 0)
(10.0963 0.0430214 0)
(10.1009 0.0418388 0)
(10.1052 0.0403679 0)
(10.1092 0.0386064 0)
(10.1128 0.0365208 0)
(10.1159 0.0341686 0)
(10.0021 0.0104702 0)
(10.0105 0.0249172 0)
(10.0221 0.0318083 0)
(10.0318 0.0358669 0)
(10.0402 0.0388731 0)
(10.0482 0.0407878 0)
(10.0557 0.0418224 0)
(10.0627 0.0423386 0)
(10.0692 0.0424926 0)
(10.0753 0.0423323 0)
(10.0811 0.0418835 0)
(10.0865 0.0411918 0)
(10.0917 0.0402884 0)
(10.0966 0.0391446 0)
(10.1012 0.0377402 0)
(10.1055 0.0360807 0)
(10.1095 0.0341671 0)
(10.113 0.0320675 0)
(10.0015 0.00843709 0)
(10.0079 0.021271 0)
(10.0176 0.0282266 0)
(10.0266 0.0323599 0)
(10.0345 0.0353595 0)
(10.0421 0.0373513 0)
(10.0494 0.038489 0)
(10.0563 0.0390765 0)
(10.0628 0.0392819 0)
(10.069 0.0391651 0)
(10.0748 0.0387608 0)
(10.0804 0.0381074 0)
(10.0857 0.0372329 0)
(10.0907 0.0361312 0)
(10.0955 0.0347972 0)
(10.0999 0.0332433 0)
(10.104 0.0314945 0)
(10.1077 0.0295981 0)
(10.0011 0.00686112 0)
(10.006 0.0180643 0)
(10.0141 0.024814 0)
(10.0222 0.0289235 0)
(10.0296 0.0318507 0)
(10.0368 0.0338459 0)
(10.0437 0.0350311 0)
(10.0504 0.035654 0)
(10.0567 0.0358824 0)
(10.0628 0.0357871 0)
(10.0686 0.035408 0)
(10.0741 0.0347816 0)
(10.0794 0.0339352 0)
(10.0844 0.0328765 0)
(10.0891 0.0316123 0)
(10.0935 0.0301605 0)
(10.0976 0.0285534 0)
(10.1014 0.0268314 0)
(10.0008 0.00568326 0)
(10.0047 0.0154564 0)
(10.0116 0.0218377 0)
(10.019 0.0258393 0)
(10.0259 0.0286564 0)
(10.0326 0.0306033 0)
(10.0392 0.0317901 0)
(10.0456 0.0324185 0)
(10.0517 0.0326491 0)
(10.0576 0.0325588 0)
(10.0632 0.0321909 0)
(10.0686 0.0315815 0)
(10.0738 0.0307591 0)
(10.0787 0.0297399 0)
(10.0833 0.0285379 0)
(10.0876 0.0271746 0)
(10.0917 0.0256816 0)
(10.0954 0.0240968 0)
(10.0007 0.00472266 0)
(10.0038 0.0131405 0)
(10.0097 0.0190114 0)
(10.0163 0.0228289 0)
(10.0227 0.0255041 0)
(10.029 0.0273659 0)
(10.0353 0.028523 0)
(10.0414 0.0291386 0)
(10.0473 0.0293593 0)
(10.053 0.0292657 0)
(10.0584 0.0289029 0)
(10.0636 0.0283066 0)
(10.0686 0.0275069 0)
(10.0733 0.0265259 0)
(10.0778 0.0253827 0)
(10.082 0.0241006 0)
(10.086 0.0227087 0)
(10.0897 0.0212408 0)
(10.0005 0.00383308 0)
(10.003 0.0108187 0)
(10.0079 0.015991 0)
(10.0138 0.0194971 0)
(10.0197 0.0219526 0)
(10.0256 0.0236655 0)
(10.0315 0.0247481 0)
(10.0373 0.0253242 0)
(10.0429 0.0255181 0)
(10.0483 0.0254104 0)
(10.0535 0.0250483 0)
(10.0585 0.0244655 0)
(10.0633 0.0236927 0)
(10.0678 0.0227551 0)
(10.0721 0.0216769 0)
(10.0762 0.0204812 0)
(10.08 0.0191943 0)
(10.0836 0.0178433 0)
(10.0004 0.00299133 0)
(10.0024 0.00850908 0)
(10.0064 0.0128101 0)
(10.0115 0.0158499 0)
(10.0169 0.0179876 0)
(10.0224 0.0194749 0)
(10.0278 0.0204213 0)
(10.0333 0.0209184 0)
(10.0386 0.0210619 0)
(10.0437 0.0209255 0)
(10.0487 0.0205563 0)
(10.0535 0.0199872 0)
(10.058 0.0192457 0)
(10.0624 0.018359 0)
(10.0665 0.0173513 0)
(10.0704 0.016247 0)
(10.074 0.0150676 0)
(10.0774 0.0138351 0)
(10.0003 0.00218014 0)
(10.0019 0.00621914 0)
(10.0053 0.00949709 0)
(10.0097 0.0118995 0)
(10.0145 0.013601 0)
(10.0195 0.0147729 0)
(10.0246 0.0155062 0)
(10.0296 0.015869 0)
(10.0346 0.0159289 0)
(10.0395 0.0157439 0)
(10.0442 0.0153559 0)
(10.0487 0.0147962 0)
(10.0531 0.0140892 0)
(10.0572 0.0132592 0)
(10.0611 0.0123288 0)
(10.0648 0.0113198 0)
(10.0682 0.0102516 0)
(10.0715 0.00913868 0)
(10.0003 0.00137996 0)
(10.0016 0.00392288 0)
(10.0044 0.00604653 0)
(10.0082 0.00764193 0)
(10.0126 0.00877109 0)
(10.0171 0.00952408 0)
(10.0218 0.0099595 0)
(10.0265 0.0101218 0)
(10.0312 0.0100539 0)
(10.0358 0.00979272 0)
(10.0402 0.00937029 0)
(10.0445 0.00881134 0)
(10.0486 0.00813736 0)
(10.0525 0.00736615 0)
(10.0562 0.0065168 0)
(10.0597 0.00560597 0)
(10.063 0.00465114 0)
(10.0662 0.00366011 0)
(10.0002 0.000556544 0)
(10.0014 0.00154035 0)
(10.0039 0.00237951 0)
(10.0073 0.00300505 0)
(10.0113 0.00341645 0)
(10.0155 0.00363565 0)
(10.0199 0.00368127 0)
(10.0243 0.00357045 0)
(10.0287 0.00332095 0)
(10.033 0.00294907 0)
(10.0372 0.00247078 0)
(10.0413 0.00190119 0)
(10.0451 0.00125397 0)
(10.0488 0.000540789 0)
(10.0524 -0.000226315 0)
(10.0557 -0.00103554 0)
(10.0588 -0.00187459 0)
(10.0618 -0.00273912 0)
(10.0002 -0.000361118 0)
(10.0013 -0.0011098 0)
(10.0037 -0.00172097 0)
(10.0071 -0.00221521 0)
(10.0109 -0.0026442 0)
(10.0149 -0.00305596 0)
(10.0191 -0.00347619 0)
(10.0234 -0.003919 0)
(10.0276 -0.00439239 0)
(10.0317 -0.00490338 0)
(10.0357 -0.00545411 0)
(10.0396 -0.00604456 0)
(10.0433 -0.00667069 0)
(10.0468 -0.00732887 0)
(10.0502 -0.00801359 0)
(10.0534 -0.0087203 0)
(10.0564 -0.00944196 0)
(10.0593 -0.0101791 0)
(10.0003 -0.00127926 0)
(10.0015 -0.00374103 0)
(10.0042 -0.00574131 0)
(10.0078 -0.00726022 0)
(10.0119 -0.00843491 0)
(10.016 -0.00939627 0)
(10.0203 -0.010214 0)
(10.0246 -0.0109283 0)
(10.0288 -0.0115765 0)
(10.0329 -0.0121874 0)
(10.0368 -0.0127826 0)
(10.0406 -0.0133732 0)
(10.0443 -0.0139665 0)
(10.0477 -0.014564 0)
(10.051 -0.015168 0)
(10.0541 -0.0157775 0)
(10.0571 -0.0163922 0)
(10.0598 -0.0170134 0)
(10.0003 -0.00216934 0)
(10.0019 -0.00623201 0)
(10.0052 -0.00939002 0)
(10.0094 -0.0116554 0)
(10.0138 -0.0133374 0)
(10.0182 -0.0146622 0)
(10.0226 -0.0157256 0)
(10.0271 -0.016591 0)
(10.0314 -0.0173237 0)
(10.0355 -0.0179725 0)
(10.0395 -0.0185702 0)
(10.0433 -0.0191355 0)
(10.0469 -0.0196829 0)
(10.0504 -0.0202189 0)
(10.0536 -0.0207501 0)
(10.0567 -0.021278 0)
(10.0596 -0.0218043 0)
(10.0624 -0.022332 0)
(10.0005 -0.00320611 0)
(10.0026 -0.00899651 0)
(10.0068 -0.0131684 0)
(10.0118 -0.015961 0)
(10.0167 -0.0179858 0)
(10.0215 -0.0195505 0)
(10.0262 -0.0207531 0)
(10.0309 -0.0216864 0)
(10.0353 -0.0224433 0)
(10.0396 -0.023088 0)
(10.0436 -0.0236566 0)
(10.0475 -0.0241766 0)
(10.0511 -0.0246654 0)
(10.0546 -0.0251365 0)
(10.0578 -0.025594 0)
(10.0609 -0.0260436 0)
(10.0638 -0.0264854 0)
(10.0665 -0.0269268 0)
(10.0007 -0.0045305 0)
(10.0039 -0.0122324 0)
(10.0094 -0.017185 0)
(10.0154 -0.0202598 0)
(10.0208 -0.0224828 0)
(10.026 -0.0241695 0)
(10.0311 -0.025408 0)
(10.036 -0.026333 0)
(10.0406 -0.0270627 0)
(10.045 -0.0276628 0)
(10.0491 -0.028172 0)
(10.053 -0.0286227 0)
(10.0567 -0.0290405 0)
(10.0601 -0.0294384 0)
(10.0633 -0.0298201 0)
(10.0664 -0.0301879 0)
(10.0692 -0.0305458 0)
(10.0719 -0.0308956 0)
(10.0011 -0.00635635 0)
(10.0059 -0.0161003 0)
(10.0133 -0.0214444 0)
(10.0203 -0.0245522 0)
(10.0263 -0.02685 0)
(10.032 -0.0285373 0)
(10.0374 -0.029706 0)
(10.0424 -0.0305548 0)
(10.0471 -0.0312091 0)
(10.0515 -0.0317237 0)
(10.0556 -0.0321368 0)
(10.0593 -0.0324874 0)
(10.0629 -0.0328103 0)
(10.0661 -0.0331151 0)
(10.0692 -0.0334039 0)
(10.072 -0.0336777 0)
(10.0746 -0.0339478 0)
(10.077 -0.0342152 0)
(10.0019 -0.00899929 0)
(10.0093 -0.0206931 0)
(10.019 -0.0258904 0)
(10.0269 -0.0288125 0)
(10.0332 -0.0310405 0)
(10.0391 -0.0325853 0)
(10.0445 -0.0335766 0)
(10.0494 -0.0342727 0)
(10.0538 -0.0347867 0)
(10.0578 -0.0351672 0)
(10.0614 -0.0354496 0)
(10.0647 -0.0356772 0)
(10.0677 -0.0358858 0)
(10.0704 -0.0360715 0)
(10.0728 -0.0362213 0)
(10.0751 -0.0363524 0)
(10.0771 -0.0364955 0)
(10.0789 -0.0366072 0)
(10.0032 -0.0128513 0)
(10.0145 -0.0259887 0)
(10.0264 -0.0304168 0)
(10.0345 -0.0329405 0)
(10.0405 -0.0348351 0)
(10.0458 -0.0360052 0)
(10.0504 -0.0366977 0)
(10.0542 -0.0371408 0)
(10.0575 -0.0374187 0)
(10.0603 -0.037585 0)
(10.0628 -0.0376307 0)
(10.065 -0.0375998 0)
(10.0668 -0.0376232 0)
(10.0682 -0.0377281 0)
(10.0694 -0.0378507 0)
(10.0703 -0.0379229 0)
(10.0711 -0.0379685 0)
(10.0717 -0.038049 0)
(10.0054 -0.0180532 0)
(10.0215 -0.0316768 0)
(10.0345 -0.0345229 0)
(10.0408 -0.0364208 0)
(10.0443 -0.0378509 0)
(10.0476 -0.0382663 0)
(10.0498 -0.0384268 0)
(10.0508 -0.0386795 0)
(10.0514 -0.0387663 0)
(10.0515 -0.0387558 0)
(10.0512 -0.0387181 0)
(10.0507 -0.0386132 0)
(10.0499 -0.0384305 0)
(10.0488 -0.0382099 0)
(10.0476 -0.0380215 0)
(10.0461 -0.0378701 0)
(10.0444 -0.0377426 0)
(10.0426 -0.0376319 0)
(10.0076 -0.0272365 0)
(10.0269 -0.0362259 0)
(10.0378 -0.0358711 0)
(10.036 -0.0365003 0)
(10.0334 -0.0377175 0)
(10.0303 -0.0384583 0)
(10.0263 -0.038381 0)
(10.0213 -0.038234 0)
(10.0157 -0.0380619 0)
(10.0096 -0.0378409 0)
(10.0031 -0.0375719 0)
(9.9963 -0.0372512 0)
(9.98939 -0.0369 0)
(9.98236 -0.0365468 0)
(9.97527 -0.0362118 0)
(9.96808 -0.0358774 0)
(9.96083 -0.035537 0)
(9.95355 -0.0351585 0)
(10.0044 -0.0367387 0)
(10.0135 -0.0444911 0)
(10.0023 -0.0406979 0)
(9.98137 -0.0373061 0)
(9.95938 -0.035454 0)
(9.93731 -0.0342715 0)
(9.91478 -0.0331651 0)
(9.89196 -0.0322636 0)
(9.86913 -0.0315251 0)
(9.84656 -0.0308742 0)
(9.82429 -0.0302713 0)
(9.80246 -0.0296857 0)
(9.78115 -0.029128 0)
(9.76039 -0.0285921 0)
(9.7402 -0.0280824 0)
(9.72053 -0.0275665 0)
(9.70145 -0.0270633 0)
(9.68259 -0.026333 0)
(9.89559 -0.00402568 0)
(9.80086 -0.0164892 0)
(9.69145 -0.0232893 0)
(9.58304 -0.0264957 0)
(9.48404 -0.0273819 0)
(9.39338 -0.0271332 0)
(9.30922 -0.0263814 0)
(9.23082 -0.0254628 0)
(9.15788 -0.0244984 0)
(9.08988 -0.023518 0)
(9.02655 -0.0225494 0)
(8.96747 -0.0216196 0)
(8.91231 -0.0207321 0)
(8.86088 -0.0198896 0)
(8.8128 -0.0190852 0)
(8.76797 -0.0183115 0)
(8.72612 -0.0175835 0)
(8.68642 -0.0166247 0)
(0.0204662 -0.0330132 -5.3672e-19)
(0.0393528 -0.0339624 2.77688e-19)
(0.053022 -0.0224434 0)
(0.0600398 -0.00523377 0)
(0.0555323 0.0112462 0)
(0.0428519 0.0206021 -1.19704e-19)
(0.0246359 0.0250422 0)
(0.00332437 0.0294219 0)
(-0.0172789 0.033374 0)
(-0.0446772 0.0312537 0)
(-0.083683 0.015645 2.79348e-19)
(-0.111205 0.0175464 0)
(-0.150736 0.0308108 0)
(-0.198889 0.0508444 0)
(-0.253451 0.0677832 0)
(-0.312623 0.0760302 1.43259e-19)
(-0.373619 0.0704979 0)
(-0.431617 0.0666811 0)
(-0.490208 0.0680615 0)
(-0.549923 0.0670533 0)
(-0.608051 0.0647856 0)
(-0.664766 0.062162 0)
(-0.720016 0.0594505 0)
(-0.773747 0.0567722 7.7701e-20)
(-0.825918 0.0542222 -7.40504e-20)
(-0.876676 0.0520704 7.08474e-20)
(-0.926102 0.0502266 6.80119e-20)
(-0.974247 0.0484534 0)
(-1.02114 0.0467522 0)
(-1.06684 0.0451431 -6.1175e-20)
(-1.11139 0.0436116 -5.93209e-20)
(-1.15483 0.042168 0)
(-1.19722 0.0407993 0)
(-1.23861 0.0395134 -5.46567e-20)
(-1.27907 0.0382959 0)
(-1.31862 0.0371548 0)
(-1.35734 0.0360738 5.09742e-20)
(-1.39525 0.0350604 0)
(-1.43241 0.0340974 4.89034e-20)
(-1.46886 0.033192 9.59152e-20)
(-1.50464 0.0323268 0)
(-1.53979 0.0315096 0)
(-1.57434 0.0307231 0)
(-1.60833 0.0299756 0)
(-1.64178 0.0292504 0)
(-1.67473 0.0285576 8.63605e-20)
(-1.70718 0.0278819 8.49895e-20)
(-1.73917 0.0272347 8.36649e-20)
(-1.7707 0.0266057 0)
(-1.80178 0.0259932 -8.11371e-20)
(-1.83244 0.025358 0)
(-1.86271 0.0247586 7.87354e-20)
(-1.89255 0.024148 7.75748e-20)
(-1.92195 0.0235429 0)
(-1.95095 0.0229311 0)
(-1.97956 0.0223273 0)
(-2.00777 0.0217341 7.3131e-20)
(-2.03558 0.0211576 0)
(-2.06299 0.0205767 0)
(-2.09002 0.020006 0)
(-2.11665 0.0194375 0)
(-2.14289 0.0188833 0)
(-2.16874 0.0183338 0)
(-2.19422 0.0178017 0)
(-2.21933 0.0172788 0)
(-2.24409 0.0167771 -6.36847e-20)
(-2.26848 0.0162893 0)
(-2.29255 0.0158264 0)
(-2.31629 0.0153824 6.05608e-20)
(-2.33973 0.0149665 5.95142e-20)
(-2.36288 0.0145734 0)
(-2.38577 0.0142101 -5.74142e-20)
(-2.40842 0.0138725 5.63609e-20)
(-2.43086 0.0135664 0)
(-2.4531 0.013289 -5.42483e-20)
(-2.47519 0.0130439 0)
(-2.49713 0.01283 0)
(-2.51896 0.0126498 5.10779e-20)
(-2.54068 0.0125003 0)
(-2.56232 0.0123813 -4.89768e-20)
(-2.58391 0.0122935 0)
(-2.60544 0.0122355 4.69013e-20)
(-2.62693 0.0122051 4.58806e-20)
(-2.6484 0.0121934 4.4873e-20)
(-2.66986 0.0122031 8.77474e-20)
(-2.69128 0.0122307 -8.57806e-20)
(-2.71266 0.0122765 0)
(-2.73396 0.0123273 0)
(-2.75512 0.0123838 0)
(-2.7761 0.0124339 -7.83021e-20)
(-2.79691 0.0124628 -7.65402e-20)
(-2.81752 0.0124703 7.48297e-20)
(-2.83783 0.0124492 0)
(-2.85775 0.0123996 -7.15678e-20)
(-2.87718 0.0123112 -7.00236e-20)
(-2.89602 0.0121779 -6.85387e-20)
(-2.91416 0.0119845 0)
(-2.93147 0.0117227 0)
(-2.94783 0.0113744 0)
(-2.96308 0.0109345 -6.31919e-20)
(-2.97706 0.0104029 0)
(-2.98958 0.0098417 0)
(-3.00055 0.0092931 5.96196e-20)
(-3.00986 0.00867215 0)
(-3.01708 0.00787564 0)
(-3.0221 0.00687136 5.64418e-20)
(-3.02465 0.00582122 0)
(-3.02466 0.00491173 0)
(-3.02197 0.00418032 -5.31459e-20)
(-3.01638 0.00324783 -5.20479e-20)
(-3.00767 0.00222096 0)
(-2.99568 0.00108642 4.97232e-20)
(-2.98019 -0.000206945 0)
(-2.96095 -0.00176003 -4.71689e-20)
(-2.93798 -0.00340124 0)
(-2.91092 -0.00518246 -4.41462e-20)
(-2.87966 -0.00708974 -4.23776e-20)
(-2.8441 -0.00908157 0)
(-2.80408 -0.011151 0)
(-2.7596 -0.0134285 0)
(-2.71046 -0.0159028 0)
(-2.65681 -0.0184802 0)
(-2.59846 -0.0211395 0)
(-2.53534 -0.0238923 0)
(-2.46744 -0.0266966 -1.90778e-20)
(-2.39474 -0.0295256 1.43603e-20)
(-2.31733 -0.0324079 0)
(-2.23532 -0.0353589 0)
(-2.14885 -0.0383415 0)
(-2.05809 -0.0413648 0)
(-1.96323 -0.0443986 -3.79136e-20)
(-1.8645 -0.0474572 0)
(-1.76216 -0.0505283 7.63539e-20)
(-1.65646 -0.053631 -9.8837e-20)
(-1.54769 -0.0567734 0)
(-1.43612 -0.0599719 0)
(-1.32204 -0.0632391 0)
(-1.20569 -0.0665845 2.16703e-19)
(-1.08735 -0.0699678 2.54918e-19)
(-0.967321 -0.0733341 0)
(-0.845868 -0.0764771 3.45376e-19)
(-0.723264 -0.0792171 3.99199e-19)
(-0.59945 -0.0806819 -4.6053e-19)
(-0.475715 -0.0802734 0)
(-0.355905 -0.0794295 0)
(-0.235581 -0.0811111 -7.03001e-19)
(-0.115425 -0.0834768 0)
(0.00811032 -0.0801129 0)
(0.130042 -0.0768857 0)
(0.251233 -0.0739628 0)
(0.369809 -0.0725726 6.99529e-19)
(0.488147 -0.0715009 6.76375e-19)
(0.602874 -0.0684253 0)
(0.713442 -0.0644646 6.39908e-19)
(0.820142 -0.0605907 0)
(0.922906 -0.0569482 0)
(1.02181 -0.0535505 5.99817e-19)
(1.11687 -0.0503588 0)
(1.20821 -0.0473723 5.78987e-19)
(1.2959 -0.0445332 0)
(1.38003 -0.0418558 0)
(1.46068 -0.0393261 5.53279e-19)
(1.53791 -0.0369388 0)
(1.61185 -0.0346896 5.38987e-19)
(1.68257 -0.0325679 0)
(1.75015 -0.0305535 0)
(1.81466 -0.028641 0)
(1.87617 -0.0268232 -5.15477e-19)
(1.93474 -0.0250902 0)
(1.99042 -0.0234276 5.05868e-19)
(2.04321 -0.0218179 0)
(2.09306 -0.0202345 0)
(2.13985 -0.0186402 0)
(2.18329 -0.0169662 0)
(2.22281 -0.0151157 0)
(2.25748 -0.0128524 0)
(2.2854 -0.00983575 0)
(2.30179 -0.004917 -9.81216e-19)
(2.3027 0.00581451 0)
(2.23022 0.0238125 0)
(0.0117106 -0.0805753 1.25184e-18)
(0.0178357 -0.0560604 -5.68125e-19)
(0.0143213 -0.0240384 0)
(0.00607767 0.0038212 1.75513e-19)
(-0.00675165 0.0276927 0)
(-0.0242898 0.0466884 6.8198e-20)
(-0.0469756 0.0620529 -1.3074e-19)
(-0.0744961 0.0753086 -1.32361e-19)
(-0.106126 0.0881184 0)
(-0.146129 0.10032 -1.59229e-19)
(-0.191961 0.108204 -8.08617e-20)
(-0.241239 0.117851 0)
(-0.291536 0.129737 0)
(-0.34072 0.141952 0)
(-0.387862 0.152077 0)
(-0.43504 0.159217 -5.50891e-20)
(-0.483463 0.162459 0)
(-0.533537 0.161647 9.34926e-20)
(-0.584491 0.159433 0)
(-0.634894 0.156525 0)
(-0.684557 0.15277 -7.96264e-20)
(-0.733545 0.148523 0)
(-0.7818 0.144014 7.28535e-20)
(-0.829258 0.13942 -3.51326e-20)
(-0.875874 0.134858 3.38446e-20)
(-0.921605 0.130406 -3.26833e-20)
(-0.966331 0.126086 -3.16331e-20)
(-1.01004 0.121911 0)
(-1.05275 0.117886 0)
(-1.09449 0.114024 2.90149e-20)
(-1.13527 0.110326 -2.80287e-20)
(-1.17514 0.106801 0)
(-1.21411 0.103445 0)
(-1.25224 0.100262 2.64116e-20)
(-1.28955 0.097242 0)
(-1.32608 0.094387 0)
(-1.36187 0.0916823 -2.48988e-20)
(-1.39696 0.0891287 0)
(-1.43138 0.086709 2.38128e-20)
(-1.46517 0.0844229 -4.72785e-20)
(-1.49836 0.0822519 0)
(-1.53097 0.0801956 0)
(-1.56304 0.0782351 -8.98271e-20)
(-1.5946 0.07637 -8.85187e-20)
(-1.62567 0.0745813 -8.72614e-20)
(-1.65627 0.0728691 4.28316e-20)
(-1.68642 0.0712147 -4.26274e-20)
(-1.71613 0.069618 -1.258e-19)
(-1.74542 0.0680588 8.26442e-20)
(-1.77432 0.0665553 4.09592e-20)
(-1.80273 0.0652044 0)
(-1.83091 0.0638573 -3.99054e-20)
(-1.85862 0.0623779 3.90733e-20)
(-1.88595 0.0609834 0)
(-1.91291 0.0596427 0)
(-1.93949 0.0583312 0)
(-1.96569 0.0570351 -3.73881e-20)
(-1.99152 0.055763 0)
(-2.01699 0.0545054 7.25641e-20)
(-2.04209 0.0532737 0)
(-2.06682 0.0520602 7.06311e-20)
(-2.0912 0.0508756 0)
(-2.11521 0.0497134 -6.86957e-20)
(-2.13888 0.0485847 0)
(-2.16219 0.0474842 6.67486e-20)
(-2.18517 0.0464227 -3.28001e-20)
(-2.20783 0.0453958 0)
(-2.23017 0.0444135 -6.37905e-20)
(-2.2522 0.0434719 -3.14653e-20)
(-2.27395 0.0425793 -3.09584e-20)
(-2.29543 0.0417326 0)
(-2.31666 0.0409381 -2.98213e-20)
(-2.33766 0.0401923 -2.94243e-20)
(-2.35845 0.0394983 0)
(-2.37906 0.0388515 2.83927e-20)
(-2.39951 0.0382527 -5.56518e-20)
(-2.41982 0.0376991 0)
(-2.44001 0.0371899 -2.68402e-20)
(-2.46009 0.0367199 0)
(-2.48009 0.0362838 7.73296e-20)
(-2.50001 0.0358789 0)
(-2.51986 0.0355025 -7.42735e-20)
(-2.53965 0.0351561 -2.42936e-20)
(-2.55939 0.0348228 2.36797e-20)
(-2.57906 0.0344789 4.63611e-20)
(-2.59866 0.0341148 -4.53784e-20)
(-2.61817 0.033735 0)
(-2.63754 0.0333213 0)
(-2.65671 0.0328698 0)
(-2.67565 0.0323553 1.25533e-19)
(-2.69434 0.0317451 4.10819e-20)
(-2.71273 0.0310224 -4.02318e-20)
(-2.73073 0.0301701 0)
(-2.74826 0.0291934 -3.82074e-20)
(-2.76521 0.0280798 3.78371e-20)
(-2.78148 0.0268221 3.70951e-20)
(-2.79693 0.0254022 0)
(-2.81146 0.0238166 0)
(-2.82492 0.0220473 0)
(-2.83718 0.0200916 3.43978e-20)
(-2.84808 0.0179234 0)
(-2.85751 0.0155094 -6.58763e-20)
(-2.86525 0.0128487 -9.74025e-20)
(-2.87107 0.00997284 6.37632e-20)
(-2.87484 0.00686008 0)
(-2.87639 0.00355947 3.05774e-20)
(-2.87554 5.65481e-05 0)
(-2.87204 -0.0036265 5.95092e-20)
(-2.86561 -0.00744375 -2.90512e-20)
(-2.8561 -0.011502 -2.85264e-20)
(-2.84336 -0.0157689 0)
(-2.82718 -0.0202388 -8.29322e-20)
(-2.80731 -0.0247456 5.4096e-20)
(-2.78368 -0.0293522 2.65032e-20)
(-2.75611 -0.034178 0)
(-2.7244 -0.039065 2.5009e-20)
(-2.68846 -0.0440383 7.22771e-20)
(-2.64816 -0.049127 0)
(-2.60329 -0.0541875 4.43993e-20)
(-2.55372 -0.0592531 4.22516e-20)
(-2.49953 -0.064321 3.9749e-20)
(-2.44066 -0.0694769 0)
(-2.37699 -0.0745765 0)
(-2.30845 -0.0795942 0)
(-2.23502 -0.0844932 -1.36723e-20)
(-2.15675 -0.0892899 -1.08107e-20)
(-2.07368 -0.0939018 0)
(-1.98594 -0.098326 -1.27072e-20)
(-1.89367 -0.102511 -7.11856e-21)
(-1.79703 -0.106455 0)
(-1.69623 -0.11011 7.1907e-21)
(-1.59148 -0.113467 2.56467e-20)
(-1.48306 -0.116496 -2.24906e-20)
(-1.37122 -0.119198 -2.69493e-20)
(-1.25628 -0.121561 0)
(-1.13855 -0.123601 0)
(-1.01836 -0.12533 0)
(-0.896074 -0.126767 -7.15039e-20)
(-0.772065 -0.127904 7.74703e-20)
(-0.646733 -0.128744 1.8491e-19)
(-0.5205 -0.129282 -1.08302e-19)
(-0.393853 -0.129381 1.15238e-19)
(-0.267197 -0.128417 1.35773e-19)
(-0.140542 -0.126802 0)
(-0.0135226 -0.126199 0)
(0.113722 -0.126039 -1.61089e-19)
(0.239028 -0.125635 0)
(0.361753 -0.12383 0)
(0.481306 -0.120154 3.67768e-19)
(0.598405 -0.116385 0)
(0.712929 -0.112576 1.93046e-19)
(0.824794 -0.108747 -2.0332e-19)
(0.933643 -0.104465 0)
(1.03956 -0.0999622 2.08443e-19)
(1.1424 -0.095455 0)
(1.24194 -0.0910207 0)
(1.33812 -0.0866912 -2.25196e-19)
(1.4309 -0.0824809 4.53429e-19)
(1.52033 -0.0784095 -2.31682e-19)
(1.60642 -0.0745139 0)
(1.6892 -0.0707576 0)
(1.76874 -0.0671375 2.36318e-19)
(1.84513 -0.0636567 0)
(1.91842 -0.0603215 2.40679e-19)
(1.9887 -0.0571201 0)
(2.05601 -0.054036 0)
(2.12045 -0.0510667 0)
(2.18206 -0.0482085 2.4944e-19)
(2.24089 -0.045446 0)
(2.297 -0.0427597 -2.51765e-19)
(2.35038 -0.0401166 0)
(2.40101 -0.0374652 0)
(2.44876 -0.0347217 5.08229e-19)
(2.4934 -0.0317596 -5.10462e-19)
(2.53452 -0.0283521 0)
(2.57129 -0.024098 0)
(2.60273 -0.0181849 0)
(2.62481 -0.00860341 1.58075e-18)
(2.6407 0.00888838 0)
(2.62047 0.0446449 -1.09319e-18)
(-0.00723438 -0.0870598 -1.96511e-21)
(-0.0140344 -0.0405346 5.57808e-19)
(-0.0282498 0.00234104 0)
(-0.0468764 0.0384848 -2.39244e-19)
(-0.0686515 0.0699167 0)
(-0.0935352 0.0974798 0)
(-0.121879 0.121994 2.09566e-22)
(-0.153762 0.144338 8.15655e-20)
(-0.188986 0.164977 8.00546e-20)
(-0.227679 0.183329 7.92464e-20)
(-0.26951 0.198596 0)
(-0.31368 0.212316 0)
(-0.35868 0.224824 -7.05327e-20)
(-0.403167 0.235471 -1.33696e-19)
(-0.446549 0.24335 1.26323e-19)
(-0.489102 0.247884 0)
(-0.531437 0.24894 1.12906e-19)
(-0.574201 0.247289 -5.38286e-20)
(-0.617419 0.243866 0)
(-0.660538 0.239254 9.85388e-20)
(-0.703407 0.233787 4.73602e-20)
(-0.745948 0.227764 -9.09148e-20)
(-0.788081 0.221412 -4.38932e-20)
(-0.829724 0.214903 0)
(-0.870801 0.20836 8.18465e-20)
(-0.911245 0.201874 7.9351e-20)
(-0.951 0.1955 0)
(-0.990032 0.18928 7.49759e-20)
(-1.02833 0.183246 0)
(-1.06588 0.177421 7.1272e-20)
(-1.1027 0.171817 3.49269e-20)
(-1.1388 0.166447 0)
(-1.17417 0.161314 0)
(-1.20886 0.156422 0)
(-1.24287 0.151767 0)
(-1.27623 0.147345 0)
(-1.30896 0.143147 0)
(-1.3411 0.139165 6.08383e-20)
(-1.37265 0.135386 -8.98971e-20)
(-1.40366 0.1318 0)
(-1.43414 0.128393 0)
(-1.46411 0.125152 0)
(-1.49361 0.122063 2.02889e-22)
(-1.52264 0.119115 5.58108e-20)
(-1.55123 0.116292 1.09919e-19)
(-1.57939 0.113583 -1.08467e-19)
(-1.60715 0.110976 -5.3436e-20)
(-1.63451 0.108462 5.29369e-20)
(-1.66149 0.106031 -1.78063e-22)
(-1.68811 0.103679 5.14404e-20)
(-1.71435 0.101415 0)
(-1.74021 0.099167 5.0176e-20)
(-1.7657 0.0969398 -1.57476e-22)
(-1.79086 0.0947638 0)
(-1.81568 0.0926399 0)
(-1.84014 0.0905586 -4.7745e-20)
(-1.86425 0.0885114 0)
(-1.88802 0.0864977 0)
(-1.91143 0.0845145 4.58365e-20)
(-1.9345 0.0825651 9.07361e-20)
(-1.95723 0.0806507 -4.48877e-20)
(-1.97961 0.0787759 0)
(-2.00166 0.0769423 4.36852e-20)
(-2.02337 0.0751551 0)
(-2.04475 0.0734173 4.22905e-20)
(-2.0658 0.0717346 4.18611e-20)
(-2.08655 0.0701104 -8.23294e-20)
(-2.10699 0.0685503 -4.04731e-20)
(-2.12714 0.0670577 0)
(-2.14701 0.065637 7.8613e-20)
(-2.16661 0.064291 0)
(-2.18598 0.0630226 1.14201e-19)
(-2.20511 0.0618325 7.48193e-20)
(-2.22404 0.0607206 7.35398e-20)
(-2.24278 0.0596853 -7.22545e-20)
(-2.26136 0.058724 1.06506e-19)
(-2.27979 0.0578344 0)
(-2.2981 0.0570113 0)
(-2.31628 0.0562491 -6.70868e-20)
(-2.33438 0.0555394 -9.87615e-20)
(-2.35238 0.0548778 0)
(-2.37031 0.0542559 3.1692e-20)
(-2.38816 0.0536658 0)
(-2.40593 0.0530854 -9.11639e-20)
(-2.42363 0.0524951 -1.72973e-22)
(-2.44123 0.0518789 1.84265e-22)
(-2.45872 0.051226 5.7053e-20)
(-2.47606 0.050516 0)
(-2.49321 0.0497328 -5.47135e-20)
(-2.51011 0.0488441 -2.28264e-22)
(-2.52674 0.047813 0)
(-2.54305 0.0466089 0)
(-2.55897 0.045213 0)
(-2.57441 0.0436118 4.96088e-20)
(-2.58927 0.0417906 0)
(-2.60345 0.0397286 0)
(-2.61683 0.0374076 0)
(-2.62929 0.0348083 0)
(-2.64068 0.031913 0)
(-2.65088 0.0287039 4.40405e-20)
(-2.65972 0.0251584 0)
(-2.66706 0.0212637 4.28305e-20)
(-2.67271 0.0170296 4.21404e-20)
(-2.67649 0.0124796 -4.14723e-20)
(-2.67827 0.00759158 0)
(-2.6778 0.00237931 -4.0077e-20)
(-2.67494 -0.00315459 0)
(-2.66935 -0.00896285 -3.8722e-20)
(-2.66092 -0.0150234 3.80302e-20)
(-2.64944 -0.0214032 1.11607e-19)
(-2.63476 -0.0280941 0)
(-2.61665 -0.0350632 1.07216e-19)
(-2.59491 -0.0422363 3.48562e-20)
(-2.56945 -0.0496152 0)
(-2.54008 -0.0572381 6.63164e-20)
(-2.5066 -0.0650204 6.43366e-20)
(-2.46897 -0.07295 -9.31106e-20)
(-2.42691 -0.0810235 0)
(-2.38033 -0.0891282 -2.84419e-20)
(-2.32911 -0.0972606 -2.69696e-20)
(-2.27331 -0.105396 -7.64291e-20)
(-2.21282 -0.113547 0)
(-2.14756 -0.12162 0)
(-2.07748 -0.129538 0)
(-2.00255 -0.137248 -1.77672e-20)
(-1.92282 -0.14471 0)
(-1.83836 -0.151872 0)
(-1.74928 -0.158693 7.8843e-21)
(-1.65572 -0.165121 4.39589e-21)
(-1.55785 -0.17112 0)
(-1.45589 -0.176642 0)
(-1.35007 -0.181652 -1.55883e-20)
(-1.24065 -0.186117 0)
(-1.12793 -0.190021 3.48216e-20)
(-1.01222 -0.193347 4.2657e-20)
(-0.893884 -0.196101 0)
(-0.773274 -0.198294 0)
(-0.650793 -0.199945 -7.71518e-20)
(-0.526851 -0.201054 -3.3823e-21)
(-0.401865 -0.201607 -3.54697e-21)
(-0.276259 -0.201573 0)
(-0.150449 -0.200884 -2.6356e-19)
(-0.0244346 -0.19935 0)
(0.10166 -0.1971 0)
(0.227034 -0.194662 0)
(0.350992 -0.191981 1.75905e-19)
(0.472815 -0.18887 0)
(0.592198 -0.184978 -3.81825e-19)
(0.709054 -0.18041 -2.03322e-19)
(0.82342 -0.175488 0)
(0.935016 -0.170341 -2.20168e-19)
(1.04363 -0.164838 0)
(1.14918 -0.158791 0)
(1.25178 -0.152447 -7.23966e-19)
(1.35132 -0.146039 4.95071e-19)
(1.44769 -0.139682 0)
(1.54081 -0.13343 5.21491e-19)
(1.63064 -0.12731 -2.69159e-19)
(1.7172 -0.121344 0)
(1.80051 -0.115567 0)
(1.88062 -0.109979 0)
(1.95761 -0.104579 -8.63509e-19)
(2.03155 -0.0993683 0)
(2.10251 -0.0943534 -2.97152e-19)
(2.17056 -0.0895227 0)
(2.23576 -0.08486 0)
(2.29821 -0.0803607 0)
(2.35796 -0.0760168 0)
(2.41506 -0.0718088 0)
(2.46956 -0.0677059 0)
(2.52147 -0.0636601 -6.34196e-19)
(2.57076 -0.0595924 0)
(2.61733 -0.055383 -3.22966e-19)
(2.661 -0.0508452 9.74093e-19)
(2.70144 -0.0456634 0)
(2.73801 -0.0392903 0)
(2.77014 -0.0306571 -6.66321e-19)
(2.79529 -0.0175511 -6.76574e-19)
(2.81719 0.00441248 6.81559e-19)
(2.82131 0.0451872 7.01802e-19)
(-0.0220497 -0.0508812 -1.71596e-18)
(-0.0377854 0.0026921 -6.52814e-19)
(-0.0605366 0.0490698 -2.50249e-19)
(-0.0871015 0.0890739 -9.21367e-20)
(-0.115325 0.124706 0)
(-0.145013 0.156922 1.37034e-19)
(-0.176405 0.186252 -6.31322e-20)
(-0.209533 0.213002 0)
(-0.244237 0.237192 -5.7083e-20)
(-0.280334 0.258493 0)
(-0.317669 0.276572 1.05519e-19)
(-0.355948 0.29169 0)
(-0.394632 0.304022 4.86416e-20)
(-0.433198 0.313488 9.32549e-20)
(-0.471358 0.31993 -8.93165e-20)
(-0.509093 0.323311 0)
(-0.546558 0.323797 -8.19014e-20)
(-0.583993 0.321854 0)
(-0.621483 0.318029 0)
(-0.658951 0.312769 -7.24986e-20)
(-0.696326 0.306446 0)
(-0.733544 0.29938 1.66208e-23)
(-0.770528 0.29183 0)
(-0.807203 0.283993 0)
(-0.8435 0.276018 -3.99834e-23)
(-0.87936 0.268016 -5.95346e-20)
(-0.914733 0.260072 -5.78936e-20)
(-0.949584 0.252251 -5.64765e-20)
(-0.983885 0.244604 0)
(-1.01762 0.237169 -1.07614e-19)
(-1.05077 0.229975 0)
(-1.08335 0.223045 -5.14828e-20)
(-1.11535 0.21639 0)
(-1.14679 0.210018 0)
(-1.17766 0.20393 4.85769e-20)
(-1.20799 0.198125 0)
(-1.2378 0.192594 -4.69159e-20)
(-1.26708 0.18733 -8.22465e-23)
(-1.29587 0.18232 9.09384e-20)
(-1.32419 0.177552 -8.94774e-20)
(-1.35204 0.17301 0)
(-1.37944 0.168679 0)
(-1.40642 0.164544 -4.27691e-20)
(-1.43298 0.160588 0)
(-1.45915 0.156795 -4.17842e-20)
(-1.48493 0.153151 4.12406e-20)
(-1.51034 0.14964 4.07132e-20)
(-1.53538 0.14625 0)
(-1.56007 0.142968 -3.9699e-20)
(-1.58441 0.139783 -3.92085e-20)
(-1.6084 0.136688 7.73277e-20)
(-1.63204 0.133655 -3.82535e-20)
(-1.65535 0.130669 -3.77871e-20)
(-1.67832 0.127738 0)
(-1.70097 0.124863 0)
(-1.72329 0.122039 3.64141e-20)
(-1.74526 0.119261 0)
(-1.76691 0.116526 0)
(-1.78822 0.113834 -7.01226e-20)
(-1.80919 0.111187 -6.92224e-20)
(-1.82983 0.108587 0)
(-1.85013 0.106039 0)
(-1.8701 0.103546 0)
(-1.88975 0.101114 0)
(-1.90907 0.0987483 -6.46799e-20)
(-1.92807 0.0964552 6.36973e-20)
(-1.94676 0.0942407 6.28262e-20)