/*--------------------------------*- C++ -*----------------------------------*\
  =========                 |
  \\      /  F ield         | OpenFOAM: The Open Source CFD Toolbox
   \\    /   O peration     | Website:  https://openfoam.org
    \\  /    A nd           | Version:  13
     \\/     M anipulation  |
\*---------------------------------------------------------------------------*/
FoamFile
{
    format      ascii;
    class       volScalarField;
    location    "286";
    object      epsilon;
}
// * * * * * * * * * * * * * * * * * * * * * * * * * * * * * * * * * * * * * //

dimensions      [0 2 -3 0 0 0 0];

internalField   nonuniform List<scalar> 
12225
(
279.472
251.108
228.649
209.116
193.747
180.156
169.785
160.871
154.432
149.011
145.96
143.577
143.581
144.364
145.968
149.265
153.674
160.445
41.683
61.3757
70.3178
75.1052
77.9717
80.7971
83.1319
87.1483
90.7507
97.0478
102.679
112.066
120.17
132.896
143.621
159.7
173.32
192.382
19.0203
26.3243
31.3978
35.1788
37.7354
40.161
41.7588
44.0036
45.4823
48.1606
49.9765
53.4879
55.9173
60.7533
63.9165
69.9996
73.6584
80.9159
15.5197
17.7723
20.0937
22.1752
23.7079
25.2259
26.232
27.4866
28.2502
29.4786
30.2029
31.5596
32.3684
33.9846
34.9498
36.8939
37.9949
40.3006
14.9306
15.3467
16.2404
17.2357
18.0462
18.9092
19.5166
20.2339
20.6938
21.3337
21.7198
22.3443
22.7087
23.3662
23.7417
24.465
24.8607
25.7045
14.7678
14.7747
14.9564
15.276
15.6268
16.045
16.3644
16.7466
17.0118
17.3512
17.5733
17.8852
18.0793
18.3832
18.5637
18.8758
19.0423
19.4079
14.7593
14.6194
14.5609
14.5775
14.6459
14.7649
14.8819
15.0393
15.1576
15.312
15.4196
15.565
15.661
15.7998
15.8859
16.024
16.0977
16.2629
14.7642
14.596
14.4534
14.3534
14.2823
14.249
14.2372
14.2442
14.2582
14.2881
14.3097
14.3507
14.3754
14.4193
14.4443
14.4894
14.5144
14.5705
14.7657
14.5952
14.4348
14.2949
14.1707
14.0687
13.9826
13.9156
13.8569
13.8149
13.7745
13.7485
13.7202
13.7044
13.6835
13.6744
13.6575
13.6633
14.7657
14.5952
14.4331
14.2832
14.1431
14.0164
13.8998
13.7971
13.7023
13.6203
13.5434
13.478
13.4147
13.3627
13.3089
13.2685
13.2194
13.192
14.7657
14.5948
14.4329
14.2811
14.1374
14.0036
13.8775
13.7612
13.6516
13.5516
13.457
13.3714
13.2894
13.2166
13.1448
13.0832
13.019
12.9677
14.7657
14.5944
14.4325
14.2803
14.1361
14.0007
13.8723
13.7521
13.6382
13.532
13.4311
13.3375
13.2481
13.1659
13.0864
13.0144
12.9433
12.8803
14.7657
14.5942
14.4322
14.2797
14.1355
13.9995
13.8706
13.7492
13.634
13.5255
13.4224
13.3255
13.2331
13.1466
13.0638
12.9866
12.9122
12.8432
14.7657
14.594
14.432
14.2792
14.1349
13.9986
13.8696
13.7478
13.6322
13.5229
13.4192
13.3211
13.2277
13.1395
13.0555
12.976
12.9002
12.8286
14.7657
14.5938
14.4318
14.2789
14.1344
13.998
13.8689
13.7468
13.6311
13.5215
13.4176
13.319
13.2254
13.1366
13.0522
12.972
12.8957
12.8232
14.7657
14.5938
14.4316
14.2786
14.134
13.9974
13.8682
13.746
13.6302
13.5205
13.4164
13.3177
13.2239
13.1349
13.0503
12.9699
12.8934
12.8207
14.7657
14.5937
14.4315
14.2784
14.1338
13.9971
13.8678
13.7454
13.6295
13.5197
13.4155
13.3167
13.2228
13.1337
13.049
12.9685
12.8919
12.819
14.7657
14.5937
14.4314
14.2782
14.1336
13.9968
13.8675
13.745
13.629
13.5191
13.4149
13.316
13.222
13.1328
13.0481
12.9675
12.8908
12.8178
14.7657
14.5937
14.4314
14.2782
14.1335
13.9968
13.8674
13.7449
13.6289
13.5189
13.4146
13.3157
13.2217
13.1324
13.0476
12.967
12.8902
12.8172
14.7657
14.5937
14.4315
14.2783
14.1337
13.9969
13.8676
13.7451
13.6291
13.5192
13.4149
13.3159
13.222
13.1328
13.0479
12.9673
12.8906
12.8176
14.7657
14.5937
14.4316
14.2785
14.134
13.9973
13.868
13.7456
13.6297
13.5198
13.4157
13.3168
13.223
13.1339
13.0493
12.9688
12.8924
12.8196
14.7657
14.5938
14.4318
14.2789
14.1344
13.9979
13.8689
13.7468
13.6314
13.5221
13.4187
13.3207
13.228
13.14
13.0568
12.9777
12.903
12.8316
14.7658
14.594
14.4322
14.2795
14.1358
14.0004
13.8734
13.754
13.6423
13.5372
13.4391
13.3467
13.2606
13.1791
13.1035
13.0313
12.9649
12.9005
14.7664
14.5939
14.4333
14.2841
14.1474
14.0228
13.9104
13.8088
13.7176
13.6349
13.5607
13.4927
13.432
13.375
13.3249
13.2759
13.2348
13.1913
14.7677
14.5936
14.4525
14.3365
14.2488
14.1843
14.1405
14.1103
14.0919
14.0803
14.0748
14.0729
14.0736
14.0757
14.0797
14.0823
14.0912
14.0898
14.7721
14.6446
14.659
14.7087
14.8253
14.9653
15.1172
15.2636
15.4082
15.5386
15.6661
15.7766
15.8881
15.9805
16.081
16.1586
16.2542
16.3191
14.9069
15.1789
15.8196
16.4935
17.1369
17.7082
18.2202
18.6595
19.0563
19.3964
19.7157
19.9904
20.2661
20.5003
20.7559
20.9663
21.2198
21.4173
15.8997
18.7497
21.1914
23.1145
24.6492
25.8508
26.8452
27.6492
28.3638
28.9769
29.5718
30.1139
30.6853
31.217
31.8193
32.3741
33.0389
33.6312
26.91
37.6454
43.4405
46.829
49.0132
50.4653
51.5828
52.4775
53.3575
54.2199
55.1849
56.2279
57.4183
58.6988
60.1662
61.7037
63.4574
65.233
164.53
154.677
146.281
138.921
132.505
126.806
121.811
117.38
113.485
110.082
107.062
104.522
102.234
100.365
98.6983
97.3853
96.2498
95.3937
0.131708
0.169489
0.31652
0.456237
0.620451
0.820078
1.06609
1.35993
1.69453
2.06067
2.45075
2.85811
3.27642
3.69841
4.11693
4.52676
4.92472
5.30905
5.67859
6.03241
6.36957
6.6889
6.98928
7.2691
7.52705
7.76118
7.97017
8.1522
8.3066
8.43265
8.53137
8.58153
8.60595
8.61689
8.57556
8.54999
8.81361
9.0573
9.29422
40.2529
40.3647
40.4684
44.5909
46.9028
50.3741
53.4131
56.9151
60.3785
64.0966
67.91
71.9156
76.0661
80.3945
84.8888
89.5619
94.4126
99.447
104.667
110.077
115.678
121.473
127.465
133.655
140.044
146.632
153.422
160.412
167.604
175
182.605
190.425
198.461
206.694
215.108
223.691
232.446
241.368
250.464
259.721
269.136
278.695
288.394
298.22
308.166
318.217
328.366
338.596
348.897
359.254
369.653
380.077
390.508
400.93
411.324
421.671
431.955
442.162
452.289
462.355
472.422
482.322
492.112
501.746
511.213
520.499
529.585
538.456
547.096
555.489
563.621
571.477
579.044
586.306
593.252
599.868
606.143
612.064
617.624
622.81
627.616
632.03
636.046
639.652
642.846
645.62
647.975
649.902
651.403
652.46
653.146
653.434
653.228
652.542
651.415
649.969
648.177
645.902
643.253
640.213
636.8
633.021
628.889
624.418
619.617
614.497
609.07
603.351
597.353
591.091
584.579
577.835
570.873
563.711
556.365
548.854
541.2
533.433
525.593
517.673
509.314
500.843
492.566
484.487
477.715
473.81
470.607
467.58
464.476
461.466
458.44
455.248
451.995
448.708
445.376
441.963
438.388
434.498
429.843
423.653
399.102
0.716396
0.447128
0.471438
0.560519
0.693909
0.871662
1.09294
1.35239
1.6388
1.94422
2.26299
2.59063
2.92581
3.26666
3.60891
3.94848
4.28333
4.61274
4.93692
5.25637
5.57203
5.88497
6.1967
6.50892
6.82368
7.14347
7.47164
7.81234
8.17041
8.56311
9.02835
9.58446
10.2672
11.0766
11.9866
13.0548
14.1387
16.2762
18.634
22.4262
23.2663
24.3944
26.0727
27.5027
29.1038
30.7066
32.404
34.1458
35.9631
37.8405
39.7888
41.8039
43.89
46.0466
48.2755
50.5773
52.953
55.4031
57.9284
60.5291
63.2057
65.9583
68.7868
71.6911
74.6708
77.7255
80.8545
84.0579
87.335
90.685
94.1138
97.6298
101.227
104.891
108.612
112.388
116.215
120.103
124.044
128.038
132.081
136.169
140.299
144.467
148.668
152.899
157.155
161.43
165.721
170.021
174.326
178.629
182.926
187.211
191.481
195.733
199.967
204.19
208.415
212.682
216.884
221.041
225.138
229.17
233.133
237.018
240.819
244.532
248.15
251.666
255.076
258.373
261.552
264.609
267.537
270.332
272.99
275.506
277.877
280.097
282.164
284.074
285.823
287.409
288.83
290.084
291.17
292.086
292.832
293.414
293.823
294.043
294.081
293.951
293.677
293.248
292.637
291.867
290.937
289.849
288.609
287.219
285.683
284.007
282.192
280.244
278.169
275.971
273.655
271.227
268.692
266.058
263.329
260.512
257.614
254.64
251.599
248.497
245.332
242.044
238.729
235.43
232.176
229.187
226.767
224.567
222.403
220.243
218.092
215.93
213.754
211.572
209.39
207.213
205.043
202.879
200.716
198.573
196.504
192.876
1.63071
0.836327
0.775233
0.836797
0.956456
1.12114
1.32522
1.56284
1.82724
2.1098
2.40485
2.70924
3.02176
3.34153
3.66635
3.99346
4.32176
4.65133
4.98317
5.31886
5.66056
6.01098
6.3737
6.75355
7.15482
7.58197
8.04156
8.54239
9.09626
9.7105
10.3803
11.118
11.9336
12.8282
13.8047
14.8779
16.072
17.3985
18.788
20.1894
21.2337
22.407
23.6621
24.932
26.2587
27.6276
29.0486
30.518
32.0397
33.6131
35.2403
36.9216
38.658
40.4504
42.2996
44.2062
46.1709
48.1942
50.2766
52.4186
54.6205
56.8826
59.205
61.5877
64.0307
66.534
69.0976
71.7214
74.4053
77.1486
79.9513
82.8137
85.7339
88.7082
91.7333
94.8075
97.9287
101.097
104.311
107.568
110.866
114.202
117.574
120.978
124.411
127.87
131.351
134.851
138.367
141.893
145.427
148.964
152.5
156.033
159.559
163.076
166.583
170.081
173.57
177.042
180.475
183.867
187.212
190.506
193.742
196.916
200.022
203.057
206.014
208.889
211.677
214.374
216.975
219.476
221.873
224.161
226.337
228.398
230.34
232.16
233.854
235.42
236.856
238.158
239.326
240.358
241.253
242.009
242.627
243.106
243.443
243.625
243.67
243.581
243.362
243.011
242.52
241.896
241.142
240.259
239.251
238.121
236.871
235.506
234.029
232.442
230.752
228.961
227.074
225.095
223.029
220.882
218.656
216.359
213.993
211.565
209.079
206.54
203.954
201.308
198.629
195.936
193.26
190.69
188.325
186.07
183.847
181.636
179.435
177.239
175.049
172.865
170.694
168.542
166.418
164.337
162.318
160.432
158.747
157.056
2.61472
1.25001
1.09593
1.12745
1.23457
1.38981
1.58301
1.80713
2.0556
2.32231
2.60273
2.89403
3.19462
3.50332
3.81965
4.14388
4.47649
4.81848
5.17152
5.53777
5.91991
6.32087
6.7437
7.19111
7.66697
8.176
8.72246
9.31029
9.94265
10.621
11.3453
12.1178
12.9398
13.8121
14.7363
15.7143
16.7468
17.8407
18.9525
20.0691
21.1716
22.3172
23.5039
24.7297
25.9999
27.3145
28.6755
30.0835
31.54
33.046
34.6025
36.2104
37.8705
39.5839
41.3513
43.1735
45.0512
46.9852
48.9761
51.0244
53.1308
55.2955
57.5191
59.8018
62.1438
64.5454
67.0066
69.5275
72.1079
74.7472
77.4444
80.1987
83.0093
85.8749
88.7944
91.7661
94.7882
97.8594
100.978
104.141
107.348
110.595
113.88
117.201
120.553
123.935
127.341
130.77
134.218
137.68
141.152
144.632
148.115
151.597
155.075
158.545
162.005
165.453
168.884
172.288
175.656
178.983
182.264
185.493
188.665
191.775
194.817
197.788
200.681
203.492
206.216
208.849
211.385
213.821
216.152
218.375
220.485
222.479
224.355
226.107
227.735
229.234
230.603
231.839
232.941
233.907
234.736
235.428
235.981
236.396
236.665
236.779
236.775
236.63
236.353
235.942
235.397
234.72
233.915
232.984
231.93
230.756
229.465
228.062
226.549
224.931
223.211
221.395
219.485
217.488
215.408
213.248
211.015
208.712
206.345
203.919
201.438
198.909
196.339
193.728
191.083
188.416
185.753
183.145
180.634
178.186
175.765
173.36
170.97
168.596
166.237
163.895
161.574
159.283
157.034
154.843
152.739
150.802
149.082
147.564
3.54133
1.64649
1.3997
1.39783
1.48848
1.63157
1.81287
2.02448
2.26045
2.51585
2.78699
3.07139
3.36765
3.67512
3.99377
4.32409
4.66697
5.02371
5.39608
5.78619
6.19643
6.62941
7.08784
7.57443
8.09201
8.64327
9.23042
9.85497
10.5176
11.2181
11.9559
12.7306
13.5423
14.3918
15.2807
16.2122
17.1869
18.2018
19.2472
20.3185
21.4161
22.5522
23.7325
24.9558
26.2233
27.5361
28.8954
30.3026
31.7587
33.2653
34.8236
36.4345
38.0991
39.8182
41.5931
43.4246
45.3138
47.2617
49.2691
51.3369
53.4659
55.6568
57.9103
60.227
62.6074
65.0519
67.5608
70.1343
72.7722
75.4742
78.2394
81.0672
83.9575
86.9096
89.9227
92.9954
96.1258
99.3123
102.553
105.846
109.189
112.579
116.014
119.491
123.007
126.558
130.14
133.75
137.384
141.037
144.706
148.386
152.073
155.761
159.447
163.125
166.791
170.439
174.063
177.656
181.211
184.722
188.184
191.59
194.936
198.214
201.419
204.546
207.59
210.544
213.404
216.164
218.82
221.366
223.799
226.114
228.307
230.375
232.313
234.118
235.787
237.318
238.708
239.955
241.057
242.012
242.82
243.481
243.992
244.354
244.551
244.605
244.52
244.287
243.911
243.391
242.731
241.931
240.995
239.927
238.73
237.406
235.961
234.398
232.721
230.935
229.044
227.054
224.968
222.792
220.532
218.191
215.775
213.291
210.741
208.133
205.472
202.766
200.022
197.244
194.432
191.596
188.758
185.949
183.192
180.475
177.782
175.108
172.452
169.82
167.213
164.632
162.083
159.575
157.121
154.745
152.479
150.393
148.521
146.83
4.37432
2.00692
1.66853
1.63579
1.7089
1.83947
2.00948
2.21005
2.43549
2.68159
2.94523
3.22429
3.51756
3.82452
4.14527
4.48036
4.83076
5.19775
5.58295
5.98818
6.41547
6.86692
7.34468
7.85085
8.3874
8.95602
9.55801
10.1942
10.8649
11.57
12.3091
13.0822
13.8894
14.7316
15.6102
16.5271
17.4833
18.4784
19.5105
20.5787
21.6847
22.832
24.0231
25.2591
26.5415
27.8713
29.25
30.679
32.1595
33.6931
35.2807
36.9241
38.6248
40.3843
42.2038
44.0849
46.0288
48.0368
50.1103
52.2504
54.4583
56.7351
59.0818
61.4994
63.9887
66.5504
69.1849
71.8927
74.6739
77.5284
80.4557
83.4557
86.5282
89.6727
92.8885
96.1741
99.5279
102.948
106.432
109.979
113.584
117.247
120.964
124.731
128.544
132.401
136.296
140.226
144.185
148.169
152.174
156.193
160.221
164.253
168.283
172.305
176.313
180.301
184.261
188.187
192.071
195.906
199.687
203.405
207.055
210.63
214.123
217.529
220.84
224.05
227.155
230.147
233.022
235.774
238.398
240.89
243.244
245.457
247.525
249.445
251.212
252.824
254.279
255.573
256.707
257.677
258.483
259.125
259.603
259.908
260.036
260.016
259.834
259.489
258.987
258.327
257.513
256.547
255.434
254.176
252.778
251.245
249.58
247.788
245.874
243.844
241.702
239.455
237.107
234.665
232.133
229.519
226.827
224.064
221.235
218.347
215.407
212.422
209.401
206.349
203.266
200.159
197.045
193.947
190.881
187.843
184.828
181.834
178.864
175.924
173.017
170.146
167.317
164.54
161.831
159.214
156.721
154.414
152.307
150.318
5.08959
2.31944
1.8978
1.83582
1.89184
2.01036
2.16991
2.36058
2.57662
2.81419
3.07058
3.34399
3.63333
3.93817
4.25862
4.5952
4.94879
5.32055
5.71185
6.12423
6.55932
7.01884
7.50446
8.01781
8.56037
9.13343
9.73803
10.3749
11.0447
11.7475
12.4838
13.2538
14.0583
14.898
15.7744
16.6887
17.6422
18.6357
19.6696
20.7446
21.8621
23.0241
24.2323
25.4882
26.7934
28.1493
29.5576
31.0199
32.5379
34.1134
35.748
37.4436
39.202
41.025
42.9145
44.8721
46.8997
48.9989
51.1716
53.4192
55.7435
58.1459
60.6279
63.1908
65.8358
68.5639
71.3759
74.2727
77.2545
80.3216
83.4741
86.7118
90.0347
93.4423
96.9337
100.508
104.162
107.896
111.706
115.591
119.546
123.57
127.658
131.808
136.013
140.271
144.576
148.923
153.307
157.721
162.161
166.619
171.09
175.566
180.042
184.508
188.959
193.387
197.783
202.14
206.45
210.705
214.897
219.019
223.062
227.019
230.883
234.646
238.301
241.842
245.26
248.551
251.707
254.723
257.593
260.311
262.874
265.275
267.511
269.578
271.472
273.19
274.73
276.089
277.266
278.258
279.066
279.689
280.127
280.364
280.422
280.303
280.003
279.523
278.867
278.036
277.034
275.865
274.533
273.043
271.399
269.606
267.67
265.596
263.39
261.058
258.607
256.042
253.37
250.598
247.731
244.777
241.743
238.634
235.459
232.223
228.935
225.603
222.237
218.84
215.415
211.968
208.513
205.067
201.643
198.242
194.864
191.511
188.187
184.9
181.654
178.453
175.305
172.221
169.217
166.316
163.551
160.974
158.58
156.244
5.67559
2.58188
2.08676
1.99727
2.0368
2.14359
2.29313
2.47441
2.68145
2.91054
3.15921
3.42586
3.70954
4.00988
4.32698
4.66131
5.01365
5.385
5.77653
6.18945
6.62516
7.0851
7.57068
8.08325
8.62409
9.19437
9.79511
10.4272
11.0916
11.7888
12.5198
13.2852
14.086
14.9233
15.7985
16.7129
17.6678
18.6646
19.7046
20.7891
21.9196
23.098
24.3259
25.605
26.937
28.3238
29.7674
31.2698
32.8331
34.4597
36.1516
37.9111
39.7405
41.6419
43.6177
45.6701
47.8014
50.0138
52.3096
54.6908
57.1595
59.7179
62.3677
65.1108
67.9487
70.883
73.9149
77.0453
80.2752
83.6049
87.0349
90.5653
94.1958
97.9261
101.755
105.682
109.704
113.82
118.026
122.321
126.7
131.161
135.698
140.308
144.985
149.725
154.521
159.367
164.257
169.184
174.142
179.122
184.117
189.119
194.119
199.11
204.083
209.029
213.938
218.801
223.611
228.356
233.029
237.62
242.12
246.521
250.814
254.991
259.043
262.962
266.742
270.374
273.851
277.167
280.315
283.29
286.085
288.697
291.12
293.349
295.382
297.215
298.845
300.27
301.488
302.498
303.299
303.892
304.27
304.431
304.394
304.153
303.709
303.065
302.223
301.188
299.963
298.553
296.963
295.199
293.265
291.169
288.916
286.513
283.967
281.284
278.472
275.539
272.491
269.337
266.082
262.736
259.306
255.799
252.224
248.587
244.899
241.167
237.402
233.608
229.788
225.949
222.103
218.264
214.443
210.644
206.869
203.125
199.415
195.749
192.132
188.57
185.071
181.647
178.315
175.099
172.026
169.14
166.423
163.719
6.13623
2.79466
2.23635
2.1213
2.14496
2.24012
2.37968
2.55155
2.74942
2.96954
3.2096
3.46808
3.74403
4.03713
4.34764
4.67604
5.02305
5.38959
5.77682
6.1861
6.6183
7.07455
7.55605
8.06402
8.5997
9.16426
9.75879
10.3843
11.0419
11.7325
12.4572
13.217
14.013
14.8468
15.7195
16.6329
17.5885
18.5879
19.6329
20.7252
21.8667
23.0594
24.3056
25.6079
26.9696
28.3914
29.8749
31.4229
33.0383
34.7239
36.4824
38.3165
40.2291
42.2228
44.3005
46.4651
48.7193
51.066
53.5079
56.0479
58.6885
61.4324
64.2819
67.2393
70.3067
73.4861
76.7791
80.187
83.7111
87.352
91.1103
94.9862
98.9796
103.09
107.316
111.656
116.109
120.672
125.341
130.114
134.986
139.953
145.01
150.153
155.374
160.667
166.026
171.444
176.913
182.425
187.971
193.543
199.131
204.727
210.32
215.901
221.459
226.984
232.466
237.895
243.258
248.547
253.751
258.859
263.862
268.749
273.51
278.136
282.618
286.947
291.113
295.11
298.929
302.562
306.003
309.245
312.282
315.109
317.72
320.112
322.279
324.22
325.93
327.408
328.652
329.662
330.437
330.977
331.272
331.335
331.17
330.775
330.155
329.313
328.251
326.974
325.488
323.797
321.909
319.828
317.563
315.12
312.506
309.729
306.797
303.718
300.501
297.153
293.684
290.102
286.414
282.631
278.761
274.811
270.791
266.711
262.579
258.404
254.197
249.963
245.708
241.437
237.162
232.893
228.643
224.416
220.218
216.054
211.933
207.861
203.848
199.899
196.024
192.235
188.549
184.989
181.579
178.357
175.289
172.206
6.48031
2.96003
2.3488
2.2103
2.21872
2.30218
2.43144
2.59348
2.78158
2.99176
3.2221
3.47152
3.73976
4.02616
4.33033
4.65251
4.99332
5.35355
5.73413
6.13599
6.56024
7.00806
7.48057
7.97884
8.50422
9.05797
9.64133
10.2555
10.9019
11.5816
12.2961
13.0468
13.8352
14.663
15.5319
16.4437
17.4003
18.4037
19.456
20.5592
21.7157
22.9278
24.1979
25.5282
26.9207
28.3788
29.9068
31.5069
33.1825
34.9369
36.7735
38.6954
40.7061
42.8089
45.0073
47.3047
49.7047
52.2106
54.8261
57.5543
60.3986
63.3621
66.4478
69.6587
72.9971
76.4655
80.0659
83.8
87.6692
91.6745
95.8164
100.095
104.511
109.062
113.748
118.566
123.515
128.591
133.79
139.109
144.543
150.085
155.732
161.475
167.308
173.224
179.214
185.269
191.382
197.541
203.738
209.962
216.202
222.447
228.687
234.909
241.102
247.253
253.352
259.386
265.342
271.21
276.976
282.63
288.16
293.555
298.803
303.895
308.82
313.567
318.127
322.492
326.653
330.601
334.329
337.83
341.098
344.127
346.911
349.445
351.727
353.752
355.518
357.022
358.264
359.243
359.958
360.409
360.593
360.519
360.187
359.6
358.764
357.683
356.359
354.799
353.009
350.995
348.765
346.325
343.685
340.851
337.833
334.639
331.279
327.762
324.097
320.293
316.362
312.311
308.151
303.892
299.542
295.113
290.612
286.051
281.44
276.788
272.105
267.399
262.675
257.941
253.205
248.48
243.775
239.097
234.454
229.851
225.297
220.801
216.371
212.016
207.745
203.572
199.512
195.586
191.818
188.236
184.801
181.333
6.71334
3.08047
2.42718
2.2672
2.26142
2.33295
2.4513
2.60296
2.78148
2.98375
3.20637
3.44769
3.70662
3.98269
4.27607
4.58731
4.91703
5.26596
5.63495
6.02492
6.43694
6.87221
7.33203
7.81774
8.3305
8.8716
9.44239
10.0443
10.6787
11.3473
12.0516
12.7934
13.5745
14.3969
15.2625
16.1736
17.1323
18.1412
19.2026
20.3191
21.4935
22.7285
24.0271
25.3922
26.8271
28.3355
29.9193
31.5824
33.3307
35.169
37.1008
39.13
41.2605
43.4964
45.8418
48.301
50.8781
53.5773
56.4026
59.3583
62.4481
65.6759
69.0451
72.5591
76.2209
80.0332
83.9983
88.1182
92.3943
96.8276
101.419
106.168
111.074
116.136
121.352
126.72
132.236
137.897
143.699
149.636
155.701
161.89
168.194
174.606
181.117
187.719
194.401
201.154
207.967
214.828
221.727
228.651
235.588
242.525
249.449
256.348
263.206
270.012
276.752
283.411
289.977
296.436
302.775
308.981
315.04
320.942
326.673
332.222
337.577
342.729
347.666
352.379
356.858
361.095
365.083
368.813
372.279
375.474
378.395
381.035
383.391
385.459
387.238
388.725
389.92
390.822
391.432
391.749
391.776
391.515
390.968
390.142
389.042
387.674
386.041
384.151
382.01
379.626
377.008
374.164
371.104
367.837
364.372
360.72
356.891
352.895
348.744
344.448
340.017
335.463
330.797
326.028
321.168
316.227
311.216
306.146
301.027
295.87
290.686
285.483
280.267
275.046
269.829
264.627
259.45
254.305
249.2
244.144
239.144
234.21
229.351
224.576
219.896
215.324
210.875
206.57
202.427
198.472
194.659
190.807
6.85377
3.16289
2.47603
2.29596
2.27681
2.33685
2.4461
2.58962
2.75945
2.95076
3.1614
3.39023
3.63652
3.90022
4.18156
4.48073
4.7982
5.13466
5.49094
5.86799
6.26689
6.68881
7.13506
7.60696
8.10591
8.63336
9.19084
9.77999
10.4025
11.0602
11.7551
12.4892
13.2646
14.0838
14.9491
15.8632
16.8287
17.8485
18.9255
20.0631
21.2644
22.5326
23.8715
25.2853
26.777
28.3491
30.0044
31.7519
33.5963
35.5432
37.5984
39.766
42.0505
44.4566
46.9893
49.6536
52.4544
55.3966
58.4849
61.7242
65.1188
68.6731
72.3911
76.2764
80.3323
84.5617
88.967
93.5501
98.3123
103.254
108.376
113.678
119.157
124.813
130.643
136.642
142.808
149.134
155.616
162.246
169.018
175.923
182.953
190.098
197.349
204.694
212.122
219.621
227.179
234.783
242.42
250.075
257.736
265.386
273.012
280.598
288.131
295.594
302.972
310.251
317.415
324.45
331.342
338.076
344.638
351.015
357.194
363.162
368.908
374.419
379.686
384.698
389.445
393.918
398.109
402.011
405.617
408.921
411.918
414.602
416.971
419.021
420.751
422.158
423.244
424.008
424.451
424.574
424.384
423.875
423.053
421.93
420.511
418.801
416.804
414.531
411.988
409.185
406.132
402.838
399.314
395.569
391.617
387.467
383.131
378.621
373.949
369.126
364.166
359.079
353.877
348.573
343.177
337.702
332.158
326.558
320.912
315.233
309.53
303.813
298.089
292.367
286.656
280.966
275.307
269.686
264.113
258.596
253.144
247.766
242.472
237.271
232.176
227.198
222.353
217.659
213.133
208.797
204.603
200.371
6.86916
3.19508
2.49288
2.29912
2.2709
2.32227
2.42115
2.55276
2.7101
2.8892
3.08801
3.30499
3.53939
3.79096
4.05977
4.34611
4.6505
4.97365
5.31643
5.6798
6.06489
6.47295
6.90535
7.36357
7.84917
8.36383
8.90936
9.48763
10.1007
10.7507
11.4399
12.171
12.9465
13.7692
14.6422
15.5685
16.5514
17.5943
18.7009
19.8754
21.1219
22.4436
23.8438
25.3244
26.8909
28.5515
30.314
32.1837
34.1661
36.2672
38.494
40.8515
43.3453
45.9812
48.765
51.7024
54.799
58.0604
61.4919
65.0987
68.8857
72.8574
77.0181
81.3714
85.9205
90.6682
95.6164
100.766
106.119
111.675
117.432
123.389
129.544
135.894
142.434
149.16
156.066
163.145
170.389
177.792
185.343
193.032
200.85
208.785
216.824
224.956
233.167
241.444
249.771
258.135
266.52
274.911
283.292
291.647
299.96
308.214
316.392
324.479
332.458
340.313
348.027
355.585
362.972
370.172
377.17
383.953
390.507
396.819
402.877
408.668
414.182
419.408
424.337
428.959
433.267
437.254
440.912
444.235
447.22
449.862
452.157
454.103
455.699
456.944
457.839
458.384
458.582
458.44
457.955
457.122
455.958
454.472
452.668
450.552
448.133
445.419
442.419
439.145
435.607
431.816
427.783
423.521
419.041
414.356
409.479
404.424
399.202
393.827
388.312
382.669
376.912
371.054
365.106
359.081
352.991
346.849
340.667
334.455
328.226
321.989
315.753
309.526
303.318
297.138
290.995
284.9
278.859
272.883
266.98
261.16
255.433
249.808
244.298
238.916
233.674
228.591
223.681
218.965
214.391
209.792
6.83803
3.19417
2.48848
2.28659
2.24823
2.2877
2.37482
2.49532
2.64156
2.8094
2.9965
3.20151
3.42372
3.66286
3.91902
4.19252
4.48394
4.79406
5.12377
5.47413
5.8464
6.24201
6.66251
7.10959
7.58508
8.09097
8.62944
9.20274
9.81321
10.4637
11.1571
11.8964
12.6848
13.5258
14.4235
15.3821
16.4048
17.4954
18.6577
19.8943
21.208
22.6072
24.0985
25.6897
27.3871
29.1973
31.1275
33.1843
35.3748
37.7064
40.1856
42.8193
45.6144
48.5779
51.7163
55.0361
58.5432
62.2434
66.1423
70.245
74.5565
79.0808
83.8219
88.7827
93.9658
99.3727
105.005
110.861
116.942
123.246
129.77
136.51
143.463
150.624
157.985
165.541
173.283
181.203
189.291
197.537
205.929
214.456
223.105
231.863
240.717
249.651
258.65
267.699
276.783
285.884
294.987
304.074
313.128
322.132
331.068
339.919
348.666
357.294
365.784
374.12
382.284
390.26
398.032
405.586
412.905
419.975
426.783
433.316
439.561
445.506
451.141
456.455
461.439
466.084
470.384
474.33
477.917
481.14
483.994
486.476
488.583
490.314
491.668
492.644
493.246
493.475
493.338
492.837
491.958
490.722
489.137
487.21
484.949
482.359
479.452
476.236
472.723
468.924
464.852
460.518
455.935
451.116
446.075
440.824
435.379
429.752
423.959
418.012
411.926
405.715
399.393
392.971
386.465
379.886
373.248
366.563
359.845
353.104
346.353
339.601
332.859
326.133
319.435
312.774
306.159
299.598
293.102
286.678
280.335
274.085
267.936
261.898
255.984
250.205
244.575
239.111
233.823
228.734
223.791
218.841
6.75731
3.17907
2.47035
2.25744
2.20889
2.23846
2.31546
2.42534
2.56068
2.71739
2.89314
3.08665
3.29727
3.52477
3.7693
4.0313
4.31147
4.61073
4.93003
5.27053
5.63388
6.02191
6.43644
6.87947
7.35319
7.86005
8.40271
8.98413
9.60785
10.2778
10.9968
11.7685
12.5967
13.4851
14.4364
15.4529
16.5425
17.7119
18.9672
20.3157
21.7647
23.32
24.9892
26.7806
28.7021
30.7618
32.9675
35.3273
37.8493
40.5418
43.4127
46.47
49.7221
53.1772
56.8425
60.724
64.8272
69.1571
73.7185
78.5154
83.5516
88.8299
94.3524
100.12
106.134
112.393
118.896
125.641
132.624
139.842
147.288
154.957
162.842
170.935
179.228
187.71
196.372
205.202
214.188
223.318
232.579
241.956
251.435
261.002
270.64
280.335
290.068
299.825
309.587
319.337
329.057
338.731
348.34
357.865
367.29
376.595
385.763
394.776
403.617
412.268
420.713
428.935
436.918
444.646
452.106
459.284
466.165
472.737
478.989
484.909
490.486
495.712
500.578
505.076
509.198
512.94
516.296
519.261
521.832
524.006
525.782
527.159
528.138
528.715
528.905
528.709
528.123
527.138
525.776
524.042
521.946
519.496
516.698
513.562
510.1
506.321
502.238
497.863
493.21
488.292
483.122
477.715
472.084
466.245
460.212
453.999
447.622
441.096
434.436
427.654
420.767
413.787
406.728
399.604
392.429
385.214
377.974
370.72
363.464
356.216
348.986
341.782
334.616
327.494
320.428
313.425
306.495
299.646
292.887
286.227
279.677
273.247
266.948
260.792
254.792
248.962
243.313
237.867
232.572
227.295
6.6028
3.13564
2.43198
2.21333
2.15717
2.17793
2.24547
2.34548
2.47073
2.61727
2.78291
2.96645
3.16744
3.38577
3.62169
3.87596
4.14946
4.44329
4.75885
5.09782
5.46226
5.85476
6.27808
6.73426
7.22618
7.75704
8.33019
8.94889
9.61567
10.3323
11.1063
11.9435
12.85
13.8318
14.8962
16.0509
17.302
18.657
20.1243
21.7131
23.4324
25.2911
27.2985
29.4644
31.7985
34.3101
37.0087
39.903
43.0016
46.3112
49.84
53.5981
57.5953
61.8423
66.3472
71.1107
76.1351
81.4221
86.9736
92.7905
98.8729
105.22
111.831
118.702
125.83
133.21
140.838
148.707
156.809
165.138
173.683
182.436
191.387
200.523
209.835
219.309
228.933
238.693
248.576
258.567
268.651
278.815
289.041
299.314
309.618
319.936
330.252
340.549
350.809
361.016
371.15
381.196
391.135
400.95
410.622
420.136
429.472
438.614
447.545
456.248
464.708
472.908
480.834
488.471
495.805
502.824
509.515
515.866
521.868
527.508
532.779
537.672
542.181
546.296
550.014
553.33
556.239
558.737
560.824
562.495
563.754
564.595
565.032
565.039
564.686
563.893
562.701
561.115
559.144
556.795
554.078
551.001
547.572
543.802
539.703
535.287
530.567
525.556
520.269
514.72
508.922
502.891
496.642
490.189
483.549
476.736
469.767
462.656
455.419
448.07
440.623
433.094
425.495
417.841
410.146
402.421
394.681
386.936
379.199
371.481
363.79
356.137
348.529
340.977
333.489
326.073
318.739
311.494
304.347
297.308
290.385
283.589
276.931
270.422
264.075
257.902
251.914
246.133
240.505
234.932
6.42455
3.06899
2.37966
2.16016
2.09948
2.1142
2.17506
2.26826
2.38694
2.52744
2.68775
2.86696
3.06486
3.28177
3.51864
3.77688
4.05748
4.36206
4.69263
5.05142
5.44068
5.86204
6.31708
6.81148
7.35016
7.93809
8.58055
9.28341
10.0536
10.8992
11.8263
12.843
13.9581
15.1809
16.5218
17.9914
19.6
21.3585
23.2782
25.3709
27.6485
30.123
32.8057
35.7077
38.8395
42.211
45.8317
49.7098
53.8522
58.265
62.9547
67.9275
73.1897
78.7479
84.6013
90.7447
97.1737
103.884
110.871
118.128
125.65
133.43
141.459
149.729
158.232
166.958
175.896
185.037
194.368
203.879
213.558
223.393
233.371
243.479
253.704
264.034
274.454
284.95
295.509
306.117
316.759
327.42
338.087
348.743
359.374
369.965
380.5
390.964
401.34
411.614
421.768
431.787
441.655
451.357
460.875
470.193
479.297
488.17
496.797
505.164
513.254
521.054
528.551
535.732
542.584
549.096
555.257
561.058
566.489
571.54
576.204
580.475
584.348
587.814
590.87
593.516
595.744
597.553
598.946
599.912
600.47
600.592
600.333
599.644
598.54
597.032
595.126
592.828
590.146
587.091
583.671
579.896
575.772
571.315
566.535
561.445
556.06
550.393
544.459
538.272
531.847
525.199
518.344
511.296
504.073
496.689
489.16
481.502
473.729
465.857
457.9
449.871
441.786
433.656
425.497
417.32
409.138
400.964
392.807
384.679
376.589
368.545
360.558
352.635
344.784
337.014
329.333
321.748
314.269
306.902
299.658
292.547
285.577
278.761
272.11
265.637
259.349
253.27
247.348
241.522
6.26109
2.99843
2.32471
2.10812
2.04699
2.06042
2.12008
2.21284
2.33247
2.47604
2.64154
2.82842
3.03689
3.26757
3.521
3.79733
4.10027
4.43308
4.79923
5.20261
5.64765
6.13984
6.68546
7.29028
7.96171
8.70802
9.53845
10.4632
11.4937
12.6426
13.9223
15.3462
16.9284
18.6836
20.6268
22.7739
25.1407
27.7422
30.5926
33.7053
37.0933
40.7686
44.7421
49.0216
53.6131
58.5219
63.7524
69.3063
75.1818
81.3769
87.8926
94.7245
101.873
109.328
117.062
125.063
133.32
141.821
150.552
159.5
168.651
177.995
187.516
197.203
207.043
217.024
227.133
237.359
247.689
258.113
268.617
279.191
289.823
300.502
311.217
321.955
332.705
343.457
354.198
364.916
375.601
386.24
396.822
407.334
417.765
428.102
438.332
448.442
458.42
468.252
477.925
487.425
496.739
505.852
514.752
523.424
531.854
540.029
547.935
555.559
562.889
569.911
576.615
582.987
589.019
594.7
600.022
604.977
609.554
613.748
617.55
620.959