/*--------------------------------*- C++ -*----------------------------------*\
  =========                 |
  \\      /  F ield         | OpenFOAM: The Open Source CFD Toolbox
   \\    /   O peration     | Website:  https://openfoam.org
    \\  /    A nd           | Version:  13
     \\/     M anipulation  |
\*---------------------------------------------------------------------------*/
FoamFile
{
    format      ascii;
    class       volScalarField;
    location    "286";
    object      k;
}
// * * * * * * * * * * * * * * * * * * * * * * * * * * * * * * * * * * * * * //

dimensions      [0 2 -2 0 0 0 0];

internalField   nonuniform List<scalar> 
12225
(
0.35512
0.31909
0.290553
0.265733
0.246202
0.228932
0.215753
0.204425
0.196243
0.189353
0.185478
0.182449
0.182459
0.183272
0.185753
0.189025
0.196773
0.196817
0.371724
0.359556
0.348322
0.337635
0.331385
0.326425
0.326824
0.328964
0.33399
0.342932
0.35422
0.36981
0.385507
0.407409
0.426853
0.454039
0.475915
0.506392
0.373585
0.368441
0.36235
0.355493
0.350208
0.344839
0.341699
0.339079
0.338768
0.339386
0.341466
0.345354
0.349879
0.357799
0.363915
0.374421
0.381389
0.393997
0.373986
0.370729
0.367009
0.362442
0.358365
0.354022
0.350501
0.347137
0.344646
0.34265
0.341387
0.340788
0.340913
0.341548
0.34258
0.34476
0.346399
0.34964
0.373996
0.371451
0.368751
0.365492
0.362346
0.358999
0.35591
0.352867
0.350146
0.347683
0.345529
0.3437
0.342212
0.341102
0.340138
0.339671
0.339219
0.339233
0.373923
0.371634
0.369367
0.366818
0.364277
0.361617
0.359033
0.356465
0.354018
0.351687
0.34952
0.347498
0.345651
0.343997
0.342496
0.34119
0.340049
0.33903
0.373874
0.371634
0.369516
0.367318
0.365136
0.362911
0.360716
0.358532
0.356407
0.354338
0.352361
0.350465
0.348676
0.346979
0.345412
0.343913
0.342584
0.341251
0.37385
0.371605
0.369506
0.367447
0.365445
0.363464
0.361521
0.359604
0.357733
0.355902
0.354136
0.352419
0.350782
0.349193
0.347708
0.346248
0.344929
0.343584
0.373839
0.371584
0.369469
0.367446
0.365511
0.36364
0.361833
0.360073
0.358369
0.356708
0.355107
0.353546
0.352054
0.350597
0.349223
0.347867
0.346618
0.345352
0.373834
0.371573
0.369442
0.367418
0.365497
0.363663
0.361911
0.360226
0.35861
0.357048
0.355551
0.354099
0.352711
0.351361
0.35008
0.348824
0.34765
0.346477
0.37383
0.371566
0.369425
0.367395
0.365471
0.363642
0.361905
0.360246
0.358665
0.35715
0.355703
0.354312
0.352984
0.351702
0.350482
0.349298
0.348179
0.347081
0.373829
0.371561
0.369416
0.367381
0.365452
0.363621
0.361883
0.360229
0.358656
0.357155
0.355725
0.354357
0.353054
0.351803
0.350612
0.349465
0.348375
0.347319
0.373828
0.371558
0.369409
0.367371
0.365439
0.363604
0.361863
0.360207
0.358634
0.357136
0.355711
0.354351
0.353056
0.351819
0.35064
0.349511
0.348435
0.347403
0.373827
0.371556
0.369404
0.367363
0.365428
0.36359
0.361845
0.360187
0.358611
0.357111
0.355684
0.354326
0.353031
0.351798
0.350621
0.349499
0.348427
0.347404
0.373826
0.371554
0.3694
0.367357
0.365419
0.363579
0.361831
0.36017
0.358591
0.357089
0.355659
0.354298
0.353002
0.351767
0.350589
0.349466
0.348394
0.347373
0.373826
0.371552
0.369397
0.367352
0.365412
0.36357
0.36182
0.360157
0.358575
0.357071
0.355639
0.354275
0.352977
0.351739
0.350559
0.349434
0.348361
0.347337
0.373825
0.371551
0.369394
0.367349
0.365407
0.363563
0.361812
0.360147
0.358564
0.357057
0.355623
0.354258
0.352957
0.351718
0.350536
0.349409
0.348333
0.347308
0.373825
0.371551
0.369393
0.367347
0.365404
0.363559
0.361807
0.36014
0.358556
0.357048
0.355613
0.354246
0.352944
0.351703
0.350519
0.349391
0.348314
0.347287
0.373825
0.37155
0.369393
0.367346
0.365403
0.363558
0.361805
0.360138
0.358553
0.357044
0.355608
0.354241
0.352938
0.351696
0.350512
0.349382
0.348305
0.347277
0.373825
0.371551
0.369394
0.367348
0.365406
0.363561
0.361808
0.360142
0.358557
0.357049
0.355613
0.354245
0.352942
0.3517
0.350516
0.349387
0.34831
0.347282
0.373826
0.371552
0.369396
0.367351
0.36541
0.363567
0.361815
0.36015
0.358566
0.357059
0.355623
0.354256
0.352954
0.351712
0.350528
0.349399
0.348321
0.347292
0.373826
0.371554
0.3694
0.367358
0.365418
0.363577
0.361827
0.360163
0.35858
0.357073
0.355638
0.354269
0.352964
0.351719
0.350531
0.349396
0.348311
0.347276
0.373827
0.371558
0.369407
0.367368
0.365432
0.363593
0.361842
0.360176
0.358586
0.35707
0.355619
0.354234
0.352907
0.351638
0.350421
0.349257
0.348138
0.347071
0.373829
0.371564
0.369421
0.367386
0.365446
0.363595
0.36182
0.360118
0.358479
0.356904
0.355384
0.353923
0.352513
0.35116
0.349852
0.348601
0.347388
0.346237
0.373832
0.371582
0.369443
0.367385
0.365385
0.36344
0.361538
0.359686
0.357875
0.35612
0.354411
0.352762
0.351164
0.349632
0.348149
0.346739
0.345372
0.344089
0.373851
0.371611
0.369395
0.367151
0.364886
0.362619
0.360358
0.358141
0.355958
0.353858
0.351815
0.349873
0.348
0.346239
0.344555
0.342989
0.341495
0.340133
0.37392
0.371504
0.368848
0.365964
0.363009
0.360024
0.357079
0.354233
0.351494
0.348953
0.346531
0.344368
0.342329
0.34055
0.338895
0.337463
0.336207
0.335129
0.373947
0.37052
0.366461
0.362039
0.357706
0.353465
0.349605
0.34603
0.34291
0.340217
0.337913
0.33621
0.33472
0.333884
0.333177
0.333161
0.333318
0.333732
0.373087
0.365596
0.357832
0.350216
0.343608
0.337749
0.333295
0.329578
0.327424
0.325734
0.325747
0.326264
0.327348
0.329665
0.332282
0.335992
0.339814
0.344578
0.363251
0.341497
0.322962
0.306711
0.292546
0.279964
0.268935
0.259153
0.250554
0.24304
0.236372
0.230767
0.225712
0.221587
0.217907
0.215008
0.212501
0.210611
0.000457479
0.0026854
0.0050127
0.00722012
0.00981501
0.0129702
0.0168607
0.0215057
0.0267915
0.0325664
0.0387082
0.0451056
0.051658
0.0582456
0.0647567
0.0711041
0.0772404
0.0831354
0.0887763
0.0941501
0.0992513
0.104071
0.108604
0.112845
0.116791
0.12044
0.123792
0.126849
0.12961
0.132075
0.134162
0.135901
0.137286
0.138671
0.140497
0.142516
0.143756
0.145125
0.144149
0.141229
0.143998
0.146017
0.155596
0.160823
0.168618
0.175261
0.182766
0.190032
0.197674
0.205354
0.213264
0.221299
0.22952
0.237894
0.24644
0.255149
0.264024
0.273064
0.282266
0.291631
0.301154
0.310835
0.320668
0.330653
0.340783
0.351056
0.361465
0.37201
0.382687
0.393501
0.404454
0.415544
0.426743
0.438023
0.449368
0.460778
0.472246
0.483782
0.495365
0.506991
0.518644
0.530317
0.541995
0.55367
0.565326
0.576954
0.588537
0.600067
0.611526
0.622902
0.634179
0.645342
0.656374
0.667259
0.677983
0.68853
0.698892
0.709071
0.719089
0.729015
0.738681
0.748146
0.757371
0.766351
0.775074
0.783529
0.791705
0.799591
0.807177
0.814455
0.821415
0.828048
0.834346
0.840301
0.845906
0.851155
0.85604
0.860557
0.864699
0.868466
0.871849
0.874845
0.877448
0.879658
0.881471
0.88289
0.883911
0.884535
0.88475
0.88462
0.884129
0.883183
0.881803
0.880016
0.877937
0.875546
0.872714
0.86954
0.866008
0.862135
0.857928
0.853395
0.848548
0.843395
0.837943
0.832203
0.826185
0.819901
0.813362
0.806579
0.799565
0.792333
0.784896
0.777268
0.769464
0.761502
0.753408
0.745218
0.736925
0.728214
0.719333
0.710588
0.702006
0.694542
0.689849
0.685935
0.682215
0.678392
0.67466
0.670919
0.667001
0.663014
0.658985
0.654904
0.650734
0.646395
0.641738
0.636315
0.629356
0.603993
0.00248997
0.0106636
0.0162054
0.0204339
0.0244004
0.0286818
0.0335124
0.0389305
0.0447939
0.0509357
0.0572686
0.0637349
0.0703455
0.0770857
0.0838625
0.0905724
0.0971491
0.103555
0.109775
0.115799
0.121627
0.127259
0.132701
0.13796
0.143051
0.147992
0.152808
0.157529
0.162197
0.166861
0.171596
0.176528
0.181804
0.187605
0.194
0.200955
0.208023
0.215504
0.223309
0.232382
0.244709
0.258867
0.270415
0.282116
0.294271
0.306601
0.319271
0.332201
0.345445
0.358983
0.372835
0.386999
0.401481
0.416285
0.431415
0.446872
0.46266
0.478779
0.495229
0.512012
0.529127
0.546571
0.564342
0.582438
0.600852
0.619581
0.638614
0.657943
0.677549
0.697418
0.717588
0.738144
0.759093
0.780339
0.801786
0.823408
0.845171
0.867136
0.889292
0.911624
0.934112
0.95674
0.979488
1.00234
1.02527
1.04825
1.07128
1.09432
1.11735
1.14034
1.16328
1.18613
1.20886
1.23146
1.25387
1.27609
1.29806
1.31975
1.34111
1.36209
1.38281
1.40322
1.42331
1.44305
1.46241
1.48138
1.49993
1.51804
1.53569
1.55285
1.56952
1.58566
1.60125
1.61629
1.63075
1.64461
1.65787
1.67049
1.68248
1.69382
1.70449
1.71448
1.72378
1.73238
1.74027
1.74744
1.7539
1.75964
1.76465
1.76894
1.77252
1.77536
1.77736
1.77851
1.77905
1.77906
1.77823
1.77668
1.77444
1.77149
1.76787
1.76357
1.75862
1.75302
1.7468
1.73995
1.73251
1.72449
1.71591
1.70678
1.69713
1.68698
1.67634
1.66525
1.65373
1.64181
1.62951
1.61688
1.60391
1.59032
1.57637
1.56231
1.54816
1.53413
1.52034
1.50663
1.49286
1.47898
1.46511
1.45113
1.43701
1.42281
1.40857
1.39431
1.38
1.36561
1.351
1.33601
1.31973
1.28395
0.00567045
0.0191691
0.0268023
0.0325794
0.0378879
0.043263
0.0489412
0.0549847
0.0613508
0.0679593
0.074749
0.0816848
0.0887524
0.0959287
0.103166
0.110408
0.117611
0.124751
0.131817
0.138811
0.145743
0.152628
0.159489
0.166358
0.173275
0.180287
0.187457
0.194858
0.202578
0.210718
0.219379
0.228634
0.238518
0.248996
0.259969
0.271306
0.283186
0.295359
0.30824
0.322045
0.336855
0.352047
0.366978
0.3822
0.39777
0.413671
0.429932
0.446552
0.463545
0.480915
0.498669
0.516813
0.535352
0.55429
0.573629
0.593374
0.613527
0.634087
0.655057
0.676437
0.698224
0.720418
0.743016
0.766016
0.789411
0.813197
0.83737
0.861921
0.886844
0.912125
0.93776
0.96376
0.990127
1.01683
1.04383
1.0711
1.09861
1.12636
1.15434
1.18254
1.21093
1.23949
1.26819
1.29702
1.32595
1.35495
1.38399
1.41305
1.4421
1.47111
1.50005
1.52888
1.55758
1.58611
1.61444
1.64254
1.67037
1.69791
1.72513
1.75201
1.77852
1.80465
1.83036
1.85562
1.8804
1.90466
1.92839
1.95155
1.97412
1.99606
2.01735
2.03797
2.05789
2.07708
2.09553
2.11321
2.1301
2.14619
2.16145
2.17587
2.18943
2.20211
2.2139
2.22479
2.23477
2.24382
2.25195
2.25915
2.26542
2.27075
2.27514
2.27858
2.28104
2.2824
2.28293
2.28267
2.28143
2.27926
2.27618
2.27221
2.26737
2.26167
2.25512
2.24775
2.23957
2.23061
2.22088
2.21041
2.19922
2.18733
2.17478
2.16159
2.14778
2.13339
2.11844
2.10297
2.08701
2.07061
2.05377
2.0364
2.01857
2.00044
1.98212
1.96376
1.94543
1.92704
1.90854
1.88993
1.87128
1.85256
1.83375
1.81487
1.79597
1.77708
1.75824
1.73945
1.7207
1.70199
1.68226
1.6508
0.00909447
0.0268885
0.0363627
0.0433369
0.0495318
0.0555793
0.0617684
0.068214
0.0749324
0.0818936
0.0890602
0.0964022
0.103898
0.111524
0.119251
0.127052
0.134905
0.142801
0.15074
0.158734
0.166802
0.174971
0.183274
0.191753
0.200455
0.209435
0.218755
0.228484
0.23869
0.249435
0.260763
0.272695
0.28522
0.298299
0.311881
0.32593
0.340459
0.355449
0.371
0.387133
0.403791
0.420819
0.438124
0.455798
0.473863
0.492327
0.511202
0.530496
0.550218
0.570377
0.590979
0.61203
0.633537
0.655505
0.677937
0.700838
0.724209
0.748054
0.772373
0.797166
0.822435
0.848176
0.874389
0.90107
0.928215
0.95582
0.983878
1.01238
1.04133
1.0707
1.10048
1.13067
1.16127
1.19224
1.22358
1.25525
1.28723
1.31951
1.35206
1.38487
1.41791
1.45115
1.48458
1.51815
1.55185
1.58564
1.61949
1.65337
1.68725
1.72108
1.75484
1.78849
1.822
1.85532
1.88843
1.92128
1.95385
1.98609
2.01797
2.04947
2.08054
2.11115
2.14127
2.17084
2.19985
2.22825
2.25601
2.28309
2.30947
2.3351
2.35996
2.38402
2.40725
2.42962
2.4511
2.47167
2.4913
2.50997
2.52766
2.54434
2.56001
2.57464
2.58821
2.60072
2.61214
2.62247
2.63171
2.63984
2.64687
2.65279
2.65761
2.66129
2.66382
2.6651
2.66543
2.66471
2.66288
2.65997
2.65599
2.65097
2.64491
2.63786
2.62981
2.6208
2.61084
2.59997
2.5882
2.57557
2.56211
2.54783
2.53278
2.51698
2.50047
2.48328
2.46544
2.447
2.42799
2.40845
2.38843
2.36789
2.34685
2.32541
2.30369
2.28185
2.25992
2.23787
2.21567
2.19335
2.17097
2.14854
2.12608
2.10358
2.0811
2.0587
2.03644
2.0144
1.99265
1.97129
1.94931
1.92008
0.0123189
0.0336897
0.0447588
0.0527724
0.0597123
0.0663044
0.072894
0.0796474
0.0866309
0.0938556
0.101309
0.108972
0.116826
0.124853
0.133036
0.141365
0.149832
0.158439
0.167197
0.176121
0.185236
0.194571
0.20416
0.214041
0.224257
0.234854
0.24588
0.257382
0.269403
0.281978
0.295128
0.308859
0.323159
0.338003
0.35336
0.36921
0.385549
0.402374
0.4197
0.437522
0.455816
0.474546
0.493699
0.513292
0.533335
0.553834
0.574798
0.596237
0.618159
0.640574
0.663489
0.686912
0.710849
0.735307
0.760291
0.785806
0.811856
0.838444
0.865573
0.893244
0.921457
0.950213
0.979511
1.00935
1.03972
1.07062
1.10205
1.13399
1.16645
1.1994
1.23283
1.26673
1.30109
1.33589
1.37112
1.40676
1.44277
1.47914
1.51584
1.55284
1.59012
1.62766
1.66541
1.70335
1.74144
1.77965
1.81795
1.85629
1.89465
1.93297
1.97122
2.00936
2.04734
2.08513
2.12269
2.15997
2.19693
2.23353
2.26973
2.30549
2.34076
2.3755
2.40967
2.44322
2.47612
2.50831
2.53977
2.57045
2.60031
2.62932
2.65744
2.68463
2.71086
2.7361
2.76032
2.78348
2.80557
2.82655
2.8464
2.8651
2.88262
2.89895
2.91407
2.92797
2.94062
2.95202
2.96216
2.97104
2.97866
2.98501
2.99009
2.99389
2.99635
2.99744
2.99745
2.99621
2.99372
2.99
2.98507
2.97896
2.97169
2.96327
2.95374
2.94312
2.93143
2.91871
2.90498
2.89028
2.87464
2.85809
2.84067
2.82242
2.80337
2.78356
2.76302
2.74181
2.71997
2.69755
2.6746
2.65111
2.62709
2.60261
2.5778
2.55277
2.5276
2.50224
2.47671
2.45105
2.42532
2.39957
2.37381
2.34807
2.32241
2.29689
2.27162
2.24673
2.22234
2.19862
2.17465
2.14585
0.0152169
0.0394938
0.0519054
0.0608165
0.0684171
0.0754993
0.0824528
0.0894836
0.0966967
0.104138
0.11182
0.11974
0.127889
0.136257
0.144839
0.15363
0.162633
0.171857
0.181315
0.191027
0.201018
0.211314
0.221946
0.232946
0.244349
0.256188
0.268497
0.281307
0.294645
0.308532
0.32298
0.337992
0.353562
0.369676
0.386319
0.403482
0.421157
0.439338
0.458024
0.477214
0.496901
0.517079
0.537748
0.558916
0.580589
0.602775
0.625481
0.648719
0.672496
0.696823
0.721709
0.747162
0.773192
0.799806
0.82701
0.854812
0.883216
0.912229
0.941853
0.972092
1.00295
1.03442
1.06651
1.09922
1.13254
1.16647
1.20101
1.23614
1.27186
1.30815
1.345
1.38239
1.42032
1.45877
1.49772
1.53715
1.57702
1.61732
1.658
1.69906
1.74045
1.78214
1.82409
1.86628
1.90866
1.9512
1.99384
2.03656
2.0793
2.12202
2.16468
2.20722
2.24961
2.29178
2.33371
2.37533
2.4166
2.45747
2.49789
2.53781
2.57718
2.61596
2.65408
2.69151
2.72819
2.76408
2.79913
2.8333
2.86654
2.89881
2.93008
2.96029
2.98942
3.01742
3.04426
3.06991
3.09433
3.11751
3.13941
3.16
3.17927
3.19718
3.21373
3.2289
3.24267
3.25503
3.26597
3.27549
3.28359
3.29027
3.29552
3.29933
3.30164
3.3025
3.30207
3.30024
3.29702
3.29244
3.28651
3.27927
3.27073
3.26092
3.24987
3.23762
3.22419
3.20961
3.19393
3.17717
3.15938
3.14059
3.12084
3.10018
3.07864
3.05628
3.03312
3.00923
2.98465
2.95944
2.93366
2.90732
2.88043
2.85303
2.82525
2.7972
2.76893
2.74045
2.71178
2.68296
2.65407
2.62518
2.59631
2.56751
2.53884
2.51039
2.4823
2.45472
2.42783
2.40181
2.37582
2.3463
0.0177046
0.0442867
0.0578086
0.0674844
0.0756647
0.0831916
0.0904851
0.0977778
0.105203
0.112832
0.120702
0.128827
0.13721
0.145853
0.154755
0.16392
0.173356
0.183074
0.19309
0.203424
0.214097
0.225135
0.236564
0.248409
0.260697
0.273453
0.286701
0.300463
0.314757
0.329596
0.34499
0.360943
0.377455
0.39452
0.412134
0.430291
0.448986
0.468217
0.487985
0.508288
0.529129
0.550509
0.572436
0.594914
0.617952
0.641558
0.665742
0.690515
0.715887
0.741869
0.768473
0.795708
0.823586
0.852115
0.881305
0.911164
0.941701
0.972921
1.00483
1.03744
1.07074
1.10474
1.13945
1.17486
1.21097
1.24778
1.28527
1.32345
1.36231
1.40182
1.44199
1.48278
1.5242
1.56622
1.60881
1.65196
1.69564
1.73981
1.78445
1.82952
1.87498
1.92081
1.96695
2.01337
2.06003
2.10688
2.15387
2.20095
2.24808
2.2952
2.34227
2.38922
2.436
2.48257
2.52886
2.57481
2.62038
2.66551
2.71013
2.7542
2.79765
2.84043
2.88248
2.92375
2.96419
3.00374
3.04235
3.07996
3.11654
3.15203
3.18639
3.21956
3.25152
3.28222
3.31162
3.33968
3.36638
3.39167
3.41554
3.43795
3.45887
3.4783
3.49619
3.51255
3.52735
3.54058
3.55224
3.56232
3.57081
3.57773
3.58306
3.58682
3.5889
3.58945
3.58851
3.58603
3.58202
3.57651
3.56952
3.56108
3.55123
3.53999
3.52739
3.51347
3.49826
3.48181
3.46416
3.44533
3.42539
3.40436
3.3823
3.35924
3.33524
3.31035
3.28461
3.25808
3.23082
3.20288
3.17433
3.1452
3.11549
3.08525
3.05458
3.02359
2.99234
2.96085
2.92915
2.89731
2.86539
2.83347
2.80161
2.76986
2.7383
2.70704
2.67622
2.64604
2.61669
2.58835
2.56021
2.5292
0.019742
0.0481275
0.0625396
0.0728449
0.081516
0.0894316
0.0970312
0.104564
0.112182
0.119975
0.127999
0.136282
0.144842
0.153689
0.162829
0.172273
0.18203
0.192114
0.202541
0.21333
0.224502
0.236078
0.248079
0.260528
0.273446
0.286852
0.300764
0.315199
0.330171
0.345692
0.361769
0.378409
0.395616
0.41339
0.431733
0.450644
0.470123
0.490173
0.510795
0.531994
0.553775
0.576144
0.599109
0.62268
0.646865
0.671676
0.697124
0.723222
0.749982
0.777417
0.80554
0.834365
0.863903
0.894167
0.925168
0.956917
0.989425
1.0227
1.05675
1.09158
1.1272
1.16362
1.20082
1.23883
1.27763
1.31722
1.3576
1.39875
1.44068
1.48337
1.5268
1.57096
1.61583
1.66139
1.70761
1.75448
1.80195
1.85
1.89859
1.94768
1.99723
2.0472
2.09755
2.14822
2.19918
2.25036
2.30171
2.35319
2.40473
2.45627
2.50776
2.55913
2.61033
2.66129
2.71194
2.76224
2.8121
2.86148
2.91029
2.95849
3.006
3.05277
3.09873
3.14381
3.18797
3.23113
3.27325
3.31427
3.35412
3.39277
3.43016
3.46623
3.50095
3.53428
3.56616
3.59656
3.62544
3.65277
3.67852
3.70266
3.72516
3.746
3.76515
3.7826
3.79834
3.81236
3.82464
3.83518
3.84399
3.85105
3.85639
3.86
3.86179
3.86195
3.86042
3.85721
3.85235
3.84584
3.83774
3.82806
3.81684
3.80412
3.78993
3.77431
3.75731
3.73896
3.71932
3.69842
3.67632
3.65306
3.62869
3.60326
3.57683
3.54944
3.52115
3.49203
3.46213
3.43152
3.40026
3.36839
3.33592
3.3029
3.26942
3.23558
3.20144
3.16704
3.13243
3.09766
3.06282
3.028
2.99325
2.95865
2.9243
2.8903
2.85684
2.8241
2.79229
2.76158
2.73121
2.69856
0.0213431
0.0510997
0.0661908
0.0769892
0.0860549
0.0942918
0.102151
0.10989
0.117671
0.125599
0.133739
0.142136
0.150816
0.159798
0.169096
0.178723
0.188693
0.199019
0.20972
0.220812
0.232315
0.244248
0.256629
0.269477
0.28281
0.296646
0.310999
0.325883
0.341312
0.357295
0.373844
0.390965
0.408665
0.426951
0.445826
0.465297
0.485367
0.506043
0.52733
0.549237
0.571772
0.594944
0.618764
0.643243
0.668394
0.694232
0.720769
0.74802
0.776001
0.804726
0.834213
0.864476
0.895531
0.927393
0.960076
0.993592
1.02796
1.06318
1.09927
1.13624
1.17409
1.21284
1.25248
1.29302
1.33445
1.37679
1.42001
1.46412
1.5091
1.55494
1.60163
1.64915
1.69747
1.74658
1.79645
1.84704
1.89833
1.95027
2.00283
2.05596
2.10962
2.16376
2.21833
2.27328
2.32855
2.38408
2.43981
2.49568
2.55163
2.6076
2.6635
2.71929
2.77488
2.83022
2.88522
2.93981
2.99394
3.04751
3.10047
3.15275
3.20426
3.25495
3.30474
3.35356
3.40135
3.44805
3.49359
3.53791
3.58094
3.62265
3.66296
3.70182
3.7392
3.77503
3.80928
3.84189
3.87285
3.90209
3.92961
3.95535
3.9793
4.00144
4.02173
4.04017
4.05673
4.07141
4.0842
4.0951
4.10411
4.11123
4.11647
4.11983
4.12128
4.12094
4.11875
4.11475
4.10895
4.10139
4.09211
4.08114
4.06852
4.05428
4.03847
4.02113
4.00231
3.98206
3.96043
3.93746
3.91321
3.88774
3.86109
3.83332
3.80449
3.77466
3.74388
3.71223
3.67976
3.64654
3.61264
3.57811
3.54296
3.50725
3.47105
3.43446
3.39754
3.36035
3.32293
3.28537
3.24773
3.2101
3.17258
3.13524
3.09819
3.06156
3.02551
2.99027
2.95602
2.92292
2.89025
2.85584
0.0225386
0.0532932
0.0688652
0.0800228
0.0893834
0.0978658
0.105926
0.113825
0.12173
0.129753
0.137969
0.14643
0.155173
0.164223
0.173601
0.183324
0.193407
0.203867
0.214719
0.225982
0.237672
0.249807
0.262404
0.275481
0.289053
0.303137
0.317746
0.332896
0.348597
0.364863
0.381704
0.399131
0.417153
0.43578
0.455021
0.474885
0.495382
0.516521
0.538312
0.560767
0.583898
0.607718
0.63224
0.657479
0.683452
0.710173
0.73766
0.765931
0.795004
0.824899
0.855634
0.887227
0.919699
0.953065
0.987343
1.02255
1.0587
1.09581
1.13388
1.17294
1.21299
1.25404
1.29609
1.33915
1.38322
1.42829
1.47437
1.52143
1.56948
1.6185
1.66847
1.71937
1.77117
1.82386
1.87739
1.93174
1.98686
2.04272
2.09927
2.15646
2.21424
2.27256
2.33135
2.39057
2.45014
2.51
2.57008
2.63032
2.69064
2.75098
2.81125
2.87138
2.9313
2.99092
3.05017
3.10898
3.16725
3.22492
3.28191
3.33813
3.39351
3.44798
3.50145
3.55386
3.60514
3.6552
3.704
3.75145
3.7975
3.84208
3.88514
3.92662
3.96647
4.00463
4.04106
4.07572
4.10857
4.13956
4.16866
4.19585
4.22108
4.24435
4.26562
4.28488
4.30212
4.31732
4.33049
4.34161
4.35069
4.35775
4.36278
4.36579
4.3668
4.36586
4.36293
4.35805
4.35125
4.34258
4.33208
4.31977
4.3057
4.28992
4.27247
4.25341
4.23278
4.21063
4.18702
4.16201
4.13566
4.10801
4.07913
4.04909
4.01793
3.98573
3.95254
3.91844
3.88349
3.84777
3.81134
3.77425
3.73653
3.69824
3.65945
3.62023
3.58068
3.54083
3.50076
3.46053
3.42023
3.37996
3.33979
3.29984
3.26021
3.22104
3.18251
3.14482
3.10817
3.07269
3.03772
3.00136
0.0233484
0.054785
0.070666
0.0820582
0.0916144
0.100262
0.108456
0.116458
0.124438
0.13251
0.140759
0.149241
0.157997
0.167059
0.176451
0.186191
0.1963
0.206793
0.217689
0.229004
0.240755
0.252958
0.26563
0.278787
0.292447
0.306625
0.321335
0.336592
0.352411
0.368805
0.385787
0.403371
0.421569
0.440395
0.459862
0.479984
0.500773
0.522245
0.544413
0.567292
0.590899
0.615248
0.640358
0.666247
0.692932
0.720436
0.748779
0.777981
0.808065
0.839054
0.870971
0.903837
0.937675
0.972506
1.00835
1.04522
1.08314
1.12213
1.16219
1.20335
1.24561
1.28899
1.33348
1.3791
1.42583
1.47369
1.52266
1.57274
1.6239
1.67614
1.72944
1.78377
1.83909
1.89539
1.95263
2.01076
2.06975
2.12954
2.19008
2.25132
2.31321
2.37567
2.43865
2.50208
2.56589
2.63001
2.69435
2.75886
2.82344
2.88802
2.95252
3.01685
3.08093
3.14467
3.20799
3.27081
3.33303
3.39459
3.45537
3.51532
3.57433
3.63234
3.68925
3.745
3.7995
3.85268
3.90446
3.95478
4.00358
4.05077
4.09632
4.14014
4.1822
4.22244
4.2608
4.29725
4.33173
4.36422
4.39468
4.42307
4.44937
4.47355
4.49559
4.51548
4.5332
4.54874
4.56211
4.57329
4.58229
4.58913
4.59382
4.59637
4.59681
4.59519
4.59142
4.58558
4.57772
4.56789
4.55611
4.54243
4.5269
4.50957
4.49049
4.4697
4.44728
4.42327
4.39774
4.37074
4.34234
4.3126
4.28158
4.24934
4.21596
4.1815
4.14602
4.1096
4.07231
4.03422
3.99539
3.95589
3.91575
3.87503
3.83381
3.79214
3.75011
3.70779
3.66523
3.62252
3.57974
3.53699
3.49436
3.45195
3.40989
3.36832
3.32742
3.28739
3.24841
3.21061
3.17336
3.13503
0.0238362
0.0556727
0.0716987
0.0832066
0.0928613
0.101592
0.109852
0.117903
0.125911
0.133994
0.142232
0.150688
0.159407
0.168422
0.177761
0.187444
0.197495
0.207932
0.218773
0.230034
0.241734
0.253888
0.266514
0.279629
0.293249
0.307392
0.322074
0.337311
0.353119
0.369515
0.386515
0.404137
0.422396
0.44131
0.460897
0.481174
0.502159
0.523871
0.546329
0.569552
0.593562
0.618376
0.64401
0.670491
0.69784
0.726081
0.75524
0.785342
0.816416
0.848489
0.881587
0.915736
0.950962
0.987287
1.02473
1.06332
1.10308
1.14401
1.18614
1.22947
1.27403
1.31982
1.36685
1.41512
1.46462
1.51536
1.56732
1.6205
1.67487
1.73042
1.78712
1.84494
1.90385
1.9638
2.02477
2.0867
2.14955
2.21325
2.27776
2.343
2.40892
2.47545
2.54251
2.61003
2.67794
2.74615
2.81458
2.88315
2.95178
3.02037
3.08884
3.1571
3.22506
3.29263
3.35972
3.42623
3.49208
3.55717
3.62141
3.68472
3.747
3.80818
3.86816
3.92686
3.9842
4.04011
4.0945
4.14732
4.19847
4.24791
4.29556
4.34137
4.38527
4.42722
4.46717
4.50506
4.54086
4.57453
4.60603
4.63533
4.6624
4.68722
4.70976
4.73002
4.74799
4.76364
4.77699
4.78804
4.79678
4.80324
4.80743
4.80938
4.80913
4.80673
4.80201
4.79514
4.78616
4.77511
4.76202
4.74696
4.72996
4.71109
4.69039
4.66794
4.64377
4.61797
4.59058
4.56169
4.53134
4.49962
4.46658
4.43229
4.39683
4.36026
4.32265
4.28407
4.24461
4.20433
4.1633
4.12158
4.07922
4.03628
3.99282
3.94891
3.90463
3.86005
3.81523
3.77025
3.72521
3.68019
3.63529
3.59063
3.54633
3.50254
3.45942
3.41718
3.37599
3.33598
3.29655
3.25631
0.0238897
0.0558549
0.071962
0.0835168
0.0932063
0.101965
0.11024
0.118288
0.126275
0.134315
0.142493
0.150873
0.159505
0.168428
0.177679
0.187272
0.197227
0.207564
0.218299
0.229451
0.241037
0.253075
0.265582
0.278577
0.292079
0.306105
0.320674
0.335804
0.351514
0.367824
0.384754
0.402325
0.420558
0.439474
0.459094
0.479443
0.500542
0.522415
0.545086
0.56858
0.592925
0.61815
0.644295
0.671388
0.699431
0.728436
0.758447
0.789501
0.821631
0.854867
0.88924
0.92478
0.961514
0.999466
1.03866
1.07912
1.12086
1.1639
1.20827
1.25396
1.301
1.34939
1.39913
1.45022
1.50266
1.55644
1.61155
1.66797
1.72567
1.78463
1.84483
1.90621
1.96875
2.0324
2.09711
2.16282
2.22948
2.29703
2.36539
2.43451
2.50431
2.57472
2.64565
2.71703
2.78876
2.86078
2.93298
3.00528
3.07759
3.14981
3.22185
3.29362
3.36502
3.43596
3.50634
3.57606
3.64504
3.71316
3.78035
3.8465
3.91153
3.97535
4.03787
4.09899
4.15865
4.21677
4.27325
4.32803
4.38104
4.43221
4.48148
4.52878
4.57406
4.61726
4.65834
4.69724
4.73393
4.76837
4.80052
4.83035
4.85783
4.88295
4.90568
4.92601
4.94393
4.95944
4.97252
4.9832
4.99148
4.99736
5.00089
5.00208
5.00106
4.99771
4.99197
4.984
4.97384
4.96153
4.94713
4.93068
4.91224
4.89186
4.86961
4.84554
4.81973
4.79223
4.76311
4.73245
4.7003
4.66675
4.63186
4.5957
4.55835
4.51987
4.48034
4.43983
4.39843
4.35619
4.3132
4.26951
4.22518
4.18026
4.13482
4.08893
4.04267
3.99609
3.94927
3.9023
3.85525
3.80822
3.76131
3.71464
3.66833
3.62253
3.57741
3.53315
3.48991
3.44784
3.40638
3.36439
0.0237812
0.0556954
0.0717723
0.0833029
0.0929703
0.101703
0.109943
0.117947
0.125877
0.133849
0.141945
0.15023
0.158751
0.167545
0.17664
0.186062
0.195833
0.205972
0.2165
0.227436
0.2388
0.250613
0.262893
0.275662
0.28894
0.302749
0.317113
0.332051
0.347583
0.363738
0.380543
0.398023
0.416206
0.435117
0.454784
0.475238
0.496506
0.518618
0.541604
0.565495
0.590319
0.616103
0.642863
0.670628
0.699446
0.729336
0.76035
0.792533
0.825916
0.860532
0.896416
0.933599
0.972108
1.01197
1.0532
1.09582
1.13986
1.18533
1.23223
1.28059
1.3304
1.38168
1.43441
1.4886
1.54423
1.60128
1.65974
1.71958
1.78076
1.84326
1.90704
1.97204
2.03823
2.10554
2.17393
2.24332
2.31365
2.38486
2.45686
2.5296
2.60297
2.67692
2.75134
2.82616
2.90128
2.97662
3.05208
3.12757
3.20299
3.27826
3.35326
3.42791
3.5021
3.57574
3.64874
3.72098
3.79238
3.86284
3.93226
4.00055
4.06761
4.13336
4.1977
4.26055
4.32183
4.38146
4.43935
4.49544
4.54964
4.6019
4.65216
4.70034
4.7464
4.79028
4.83193
4.87131
4.90838
4.94309
4.97542
5.00533
5.03281
5.05782
5.08036
5.10041
5.11796
5.13301
5.14555
5.15561
5.16319
5.1683
5.17098
5.17127
5.16937
5.16492
5.15808
5.14895
5.13758
5.12401
5.1083
5.0905
5.07066
5.04885
5.02514
4.99957
4.97223
4.94319
4.9125
4.88025
4.84651
4.81134
4.77482
4.73703
4.69803
4.6579
4.61672
4.57456
4.53149
4.48759
4.44293
4.39758
4.35158
4.305
4.2579
4.21035
4.16241
4.11417
4.06568
4.01702
3.96828
3.91955
3.87094
3.82255
3.77451
3.72697
3.68008
3.63404
3.58898
3.54506
3.50177
3.45824
0.0235011
0.0552572
0.0712244
0.0826622
0.0922413
0.100883
0.109024
0.116917
0.124723
0.132553
0.140491
0.148598
0.156923
0.165502
0.174366
0.183545
0.193064
0.202952
0.213223
0.223893
0.234988
0.24653
0.258543
0.271049
0.284074
0.297643
0.311783
0.326522
0.341888
0.357913
0.37463
0.392071
0.410269
0.42926
0.44908
0.469763
0.491344
0.513856
0.537333
0.561808
0.58732
0.613917
0.641609
0.67042
0.700356
0.731509
0.76392
0.797626
0.832672
0.869097
0.906947
0.946251
0.987027
1.0293
1.07308
1.11838
1.16522
1.21361
1.26354
1.31504
1.36808
1.42266
1.47878
1.53642
1.59555
1.65615
1.71819
1.78162
1.84642
1.91253
1.9799
2.04848
2.1182
2.18902
2.26086
2.33365
2.40733
2.4818
2.55701
2.63286
2.70927
2.78616
2.86344
2.94102
3.01881
3.09671
3.17465
3.25251
3.3302
3.40764
3.48471
3.56134
3.6374
3.71282
3.78749
3.86131
3.93419
4.00604
4.07675
4.14623
4.21439
4.28115
4.3464
4.41008
4.4721
4.53237
4.59082
4.64738
4.70198
4.75455
4.80502
4.85335
4.89948
4.94335
4.98492
5.02414
5.06098
5.0954
5.12736
5.15685
5.18383
5.20829
5.23021
5.24959
5.26641
5.28067
5.29239
5.30156
5.30819
5.31232
5.31397
5.31331
5.31032
5.30469
5.29669
5.28637
5.27378
5.25897
5.242
5.22292
5.20179
5.17867
5.15363
5.12673
5.09805
5.06766
5.03563
5.00203
4.96694
4.93043
4.89258
4.85345
4.81312
4.77166
4.72916
4.68569
4.64131
4.59611
4.55015
4.50349
4.4562
4.40834
4.35996
4.31112
4.2619
4.21236
4.16258
4.11261
4.06256
4.0125
3.96253
3.91277
3.86334
3.81438
3.76604
3.7185
3.67189
3.62639
3.58152
3.53672
0.0229624
0.0544102
0.0701909
0.0814677
0.0908975
0.0993905
0.107379
0.11511
0.122742
0.130386
0.138124
0.146015
0.154109
0.162444
0.17105
0.17996
0.189199
0.198795
0.208768
0.219145
0.229949
0.241205
0.252941
0.265185
0.27797
0.29133
0.305301
0.319918
0.335223
0.351252
0.368046
0.385643
0.404084
0.423412
0.443671
0.46491
0.487186
0.510523
0.534956
0.560518
0.587232
0.615082
0.644161
0.674544
0.706318
0.739517
0.774171
0.810309
0.847964
0.887163
0.927922
0.970265
1.01422
1.05983
1.10708
1.15596
1.20647
1.25861
1.31237
1.36773
1.42468
1.48319
1.54324
1.60479
1.66782
1.73226
1.79809
1.86525
1.93369
2.00335
2.07417
2.14609
2.21904
2.29296
2.36777
2.44339
2.51976
2.59679
2.67441
2.75253
2.83107
2.90995
2.98907
3.06836
3.14772
3.22707
3.30631
3.38536
3.46412
3.5425
3.6204
3.69774
3.77443
3.85036
3.92544
3.99958
4.0727
4.14468
4.21545
4.28492
4.35299
4.41957
4.48459
4.54796
4.60961
4.66945
4.72741
4.78343
4.83742
4.88933
4.93911
4.98669
5.03202
5.07506
5.11576
5.15408
5.18998
5.22342
5.25438
5.28284
5.30876
5.33214
5.35296
5.37121
5.38689
5.4
5.41054
5.41851
5.42394
5.42684
5.42728
5.42556
5.42124
5.41438
5.40516
5.39363
5.37982
5.3638
5.34562
5.32535
5.30304
5.27875
5.25255
5.22451
5.19471
5.16321
5.13009
5.09543
5.05928
5.02174
4.98287
4.94275
4.90144
4.85903
4.81559
4.77118
4.72589
4.67979
4.63293
4.58539
4.53723
4.48849
4.43924
4.38954
4.33946
4.28905
4.23838
4.18751
4.13655
4.08555
4.03462
3.98387
3.93341
3.88337
3.83392
3.7852
3.73735
3.69056
3.64439
3.59864
0.022344
0.0533713
0.0688956
0.0799683
0.0892079
0.0975124
0.105308
0.112837
0.120259
0.127681
0.135184
0.142828
0.150663
0.158728
0.167057
0.175683
0.184636
0.193945
0.203641
0.213755
0.224319
0.235369
0.246937
0.259061
0.271783
0.285149
0.299201
0.313987
0.329556
0.345965
0.363285
0.381555
0.400818
0.421123
0.442512
0.46501
0.488597
0.513395
0.539481
0.566915
0.595761
0.626113
0.657992
0.691444
0.726517
0.763242
0.801642
0.841734
0.883528
0.92703
0.972243
1.01916
1.06779
1.11807
1.17001
1.22357
1.27875
1.33551
1.39384
1.45368
1.51501
1.57777
1.64193
1.70743