/*--------------------------------*- C++ -*----------------------------------*\
  =========                 |
  \\      /  F ield         | OpenFOAM: The Open Source CFD Toolbox
   \\    /   O peration     | Website:  https://openfoam.org
    \\  /    A nd           | Version:  13
     \\/     M anipulation  |
\*---------------------------------------------------------------------------*/
FoamFile
{
    format      ascii;
    class       volScalarField;
    location    "286";
    object      nut;
}
// * * * * * * * * * * * * * * * * * * * * * * * * * * * * * * * * * * * * * //

dimensions      [0 2 -1 0 0 0 0];

internalField   nonuniform List<scalar> 
12225
(
4.0612e-05
3.64929e-05
3.32295e-05
3.0391e-05
2.81573e-05
2.61822e-05
2.46749e-05
2.33794e-05
2.24437e-05
2.16556e-05
2.12125e-05
2.0866e-05
2.08677e-05
2.09399e-05
2.12743e-05
2.1544e-05
2.26764e-05
2.1729e-05
0.00029835
0.000189575
0.000155289
0.000136605
0.000126757
0.00011869
0.000115639
0.000111758
0.000110627
0.000109062
0.000109978
0.000109832
0.000111304
0.000112406
0.000114177
0.000116178
0.000117612
0.000119964
0.000660395
0.000464111
0.000376357
0.000323314
0.000292513
0.000266483
0.000251642
0.000235156
0.000227093
0.000215248
0.000209976
0.000200685
0.00019703
0.00018965
0.000186479
0.000180247
0.000177728
0.000172661
0.000811092
0.000696006
0.000603302
0.000533153
0.000487529
0.000447152
0.000421492
0.000394571
0.000378414
0.000358457
0.000347288
0.000331191
0.000323153
0.000308932
0.000302219
0.00028995
0.000284231
0.000273006
0.000843138
0.000809154
0.000753551
0.000697538
0.000654793
0.000613418
0.000584142
0.000553842
0.000533215
0.000509968
0.000494717
0.000475812
0.000464133
0.00044815
0.000438572
0.000424439
0.000416572
0.000402928
0.000852101
0.000841306
0.000820977
0.000792747
0.000764252
0.0007335
0.000708944
0.000682889
0.000663044
0.000641545
0.000625652
0.000607649
0.000594755
0.000579336
0.000568708
0.000555046
0.000546519
0.000533017
0.000852367
0.000850247
0.000843956
0.000832997
0.000819286
0.000802813
0.000786893
0.000769256
0.000754231
0.000737984
0.000724682
0.000710201
0.000698662
0.000685802
0.000675936
0.000664306
0.000656165
0.000644453
0.000851975
0.000851473
0.000850193
0.000846596
0.00084157
0.000834414
0.000826198
0.00081706
0.000807785
0.000797866
0.000788775
0.00077891
0.000770367
0.000761078
0.000753313
0.000744678
0.000737736
0.000729181
0.000851843
0.000851424
0.000851115
0.000850057
0.000848501
0.000845928
0.000842695
0.000838538
0.000834137
0.000828933
0.000823916
0.000818237
0.000813022
0.000807233
0.000802144
0.000796453
0.000791722
0.000785615
0.000851812
0.000851371
0.000851088
0.000850623
0.000850095
0.000849189
0.000848081
0.000846455
0.000844684
0.000842384
0.000840074
0.000837272
0.000834638
0.000831487
0.000828773
0.000825339
0.00082284
0.00081899
0.000851799
0.000851366
0.000851026
0.000850645
0.000850314
0.000849867
0.000849418
0.00084876
0.000848078
0.000847134
0.000846195
0.000844958
0.000843812
0.000842309
0.000841049
0.000839304
0.000838048
0.000836066
0.000851791
0.000851367
0.000851002
0.000850626
0.000850304
0.000849946
0.00084963
0.000849237
0.00084887
0.000848387
0.000847934
0.000847328
0.000846783
0.000846043
0.000845427
0.000844553
0.000843903
0.000842898
0.000851786
0.000851367
0.000850989
0.000850614
0.00085028
0.00084994
0.000849639
0.000849318
0.000849031
0.000848705
0.000848413
0.000848061
0.000847749
0.000847356
0.00084702
0.00084658
0.000846223
0.000845734
0.000851782
0.000851366
0.00085098
0.000850607
0.000850262
0.000849925
0.000849616
0.000849311
0.000849031
0.000848748
0.000848489
0.000848221
0.000847975
0.000847713
0.000847475
0.000847212
0.000846976
0.00084671
0.000851781
0.000851365
0.000850974
0.000850601
0.00085025
0.000849913
0.000849597
0.000849293
0.000849007
0.000848731
0.000848472
0.00084822
0.000847982
0.00084775
0.000847531
0.000847315
0.000847111
0.000846909
0.00085178
0.000851363
0.00085097
0.000850595
0.000850241
0.000849903
0.000849583
0.000849278
0.000848988
0.000848711
0.000848448
0.000848196
0.000847956
0.000847726
0.000847507
0.000847297
0.000847096
0.000846903
0.000851779
0.000851362
0.000850967
0.000850591
0.000850235
0.000849896
0.000849574
0.000849267
0.000848975
0.000848696
0.00084843
0.000848176
0.000847934
0.000847702
0.000847481
0.000847269
0.000847066
0.000846873
0.000851779
0.000851362
0.000850965
0.000850589
0.000850231
0.000849891
0.000849568
0.00084926
0.000848966
0.000848686
0.000848418
0.000848163
0.000847919
0.000847686
0.000847463
0.000847249
0.000847045
0.000846849
0.000851779
0.000851362
0.000850965
0.000850589
0.000850231
0.00084989
0.000849566
0.000849257
0.000848963
0.000848682
0.000848413
0.000848157
0.000847912
0.000847678
0.000847454
0.000847239
0.000847034
0.000846838
0.000851779
0.000851362
0.000850966
0.000850591
0.000850233
0.000849893
0.00084957
0.000849261
0.000848967
0.000848686
0.000848417
0.000848161
0.000847915
0.000847681
0.000847456
0.00084724
0.000847033
0.000846836
0.000851779
0.000851364
0.000850969
0.000850595
0.000850238
0.0008499
0.000849577
0.00084927
0.000848974
0.000848693
0.00084842
0.00084816
0.000847906
0.000847664
0.000847425
0.000847198
0.00084697
0.000846756
0.000851779
0.000851367
0.000850973
0.000850603
0.000850247
0.000849909
0.000849577
0.000849259
0.000848937
0.000848623
0.000848296
0.000847978
0.000847637
0.000847308
0.000846948
0.000846608
0.000846228
0.000845881
0.000851776
0.000851373
0.000850983
0.000850615
0.000850228
0.000849828
0.000849371
0.000848873
0.000848288
0.000847656
0.000846922
0.000846157
0.000845279
0.000844403
0.000843402
0.000842454
0.000841349
0.000840373
0.000851753
0.000851412
0.000850981
0.000850426
0.000849596
0.000848486
0.000847008
0.000845235
0.000843126
0.000840801
0.000838215
0.000835528
0.000832631
0.000829769
0.000826695
0.000823824
0.000820646
0.000817904
0.000851694
0.000851512
0.000849954
0.000847311
0.000843269
0.000838108
0.000831926
0.00082519
0.000817968
0.000810631
0.000803183
0.000795838
0.0007886
0.000781616
0.000774782
0.00076838
0.000761848
0.000756272
0.000851524
0.00084868
0.000837762
0.00082482
0.000808265
0.000790787
0.000773106
0.000756298
0.000740099
0.000725252
0.000711064
0.000698312
0.000686005
0.000675154
0.000664425
0.000655236
0.000645722
0.000638034
0.000844135
0.000818328
0.000774
0.000730812
0.00069206
0.000658766
0.000629822
0.000605228
0.000583499
0.000565008
0.000548169
0.000533908
0.000520426
0.000509147
0.000498001
0.000488845
0.000479417
0.000471957
0.000791545
0.000658978
0.000570344
0.000510352
0.000467189
0.00043497
0.000409762
0.000389751
0.000373111
0.000359503
0.000347515
0.000337829
0.000328606
0.000321398
0.00031398
0.00030857
0.000302645
0.000298054
0.000465531
0.000319547
0.000265281
0.000235721
0.000216799
0.000203441
0.000193818
0.000186288
0.000180829
0.000176121
0.000173055
0.000170384
0.000167963
0.000166632
0.00016516
0.00016466
0.000163773
0.000163814
7.2179e-05
6.78565e-05
6.41734e-05
6.09443e-05
5.81297e-05
5.56297e-05
5.34383e-05
5.14944e-05
4.97858e-05
4.82929e-05
4.69678e-05
4.58543e-05
4.48494e-05
4.403e-05
4.32989e-05
4.27228e-05
4.22247e-05
4.18491e-05
1.43012e-07
3.82929e-06
7.1447e-06
1.02835e-05
1.39739e-05
1.84622e-05
2.39994e-05
3.06079e-05
3.81231e-05
4.63205e-05
5.50235e-05
6.40655e-05
7.33023e-05
8.2557e-05
9.16723e-05
0.000100518
0.000109031
0.000117165
0.00012491
0.000132249
0.000139189
0.000145728
0.00015188
0.000157661
0.000163092
0.000168211
0.000173045
0.00017764
0.00018201
0.000186173
0.000189881
0.000193697
0.000197105
0.000200846
0.000207164
0.0002138
0.000211028
0.000209281
0.000201212
4.4596e-05
4.6233e-05
4.74169e-05
4.88644e-05
4.96298e-05
5.07974e-05
5.17567e-05
5.28207e-05
5.38286e-05
5.48667e-05
5.58878e-05
5.69187e-05
5.79444e-05
5.89734e-05
6.00011e-05
6.10299e-05
6.20583e-05
6.30868e-05
6.41149e-05
6.51426e-05
6.61695e-05
6.71952e-05
6.82196e-05
6.92421e-05
7.02625e-05
7.12801e-05
7.22948e-05
7.33059e-05
7.43134e-05
7.53168e-05
7.63169e-05
7.73138e-05
7.83074e-05
7.92953e-05
8.0275e-05
8.12451e-05
8.2206e-05
8.31573e-05
8.40999e-05
8.50325e-05
8.5955e-05
8.68662e-05
8.77661e-05
8.86535e-05
8.95281e-05
9.03891e-05
9.1236e-05
9.2068e-05
9.28847e-05
9.3685e-05
9.44687e-05
9.52347e-05
9.59824e-05
9.67111e-05
9.742e-05
9.81084e-05
9.87757e-05
9.94219e-05
0.000100047
0.000100654
0.000101248
0.000101817
0.000102365
0.000102891
0.000103394
0.000103875
0.000104332
0.000104766
0.000105176
0.000105561
0.000105923
0.00010626
0.000106572
0.000106859
0.000107121
0.000107357
0.000107568
0.000107754
0.000107914
0.000108048
0.000108157
0.00010824
0.000108297
0.000108328
0.000108334
0.000108313
0.000108267
0.000108196
0.000108099
0.000107977
0.000107831
0.000107664
0.000107468
0.000107245
0.000106996
0.000106728
0.000106441
0.000106125
0.000105789
0.000105429
0.000105049
0.000104647
0.000104224
0.000103781
0.000103319
0.000102838
0.000102337
0.000101819
0.000101283
0.000100729
0.00010016
9.95741e-05
9.89734e-05
9.83582e-05
9.77292e-05
9.70873e-05
9.64332e-05
9.57686e-05
9.50953e-05
9.44133e-05
9.37078e-05
9.29824e-05
9.226e-05
9.15464e-05
9.08806e-05
9.03954e-05
8.99809e-05
8.95836e-05
8.91746e-05
8.87714e-05
8.83691e-05
8.79525e-05
8.75296e-05
8.71024e-05
8.66704e-05
8.62311e-05
8.5779e-05
8.53042e-05
8.47768e-05
8.41444e-05
8.22665e-05
7.7889e-07
2.28884e-05
5.01343e-05
6.70433e-05
7.72204e-05
8.49388e-05
9.24824e-05
0.00010086
0.000110193
0.000120099
0.000130435
0.000141121
0.000152219
0.000163714
0.000175389
0.000186984
0.000198307
0.000209232
0.00021968
0.000229596
0.000238938
0.000247669
0.000255757
0.000263173
0.000269902
0.000275938
0.000281265
0.00028588
0.000289789
0.000292631
0.000293526
0.000292619
0.000289733
0.000285973
0.000282586
0.000278401
0.000275458
0.000256802
0.000240852
0.000216716
0.000231641
0.000247232
0.000252416
0.000260449
0.000267786
0.000275523
0.000283114
0.000290876
0.000298637
0.000306503
0.000314425
0.000322437
0.000330527
0.000338709
0.000346981
0.000355348
0.000363811
0.000372373
0.000381034
0.000389798
0.000398663
0.00040763
0.000416699
0.000425869
0.000435138
0.000444503
0.000453957
0.00046349
0.000473081
0.000482718
0.000492424
0.000502276
0.000512311
0.00052248
0.000532701
0.000542941
0.000553185
0.000563462
0.000573793
0.000584164
0.000594567
0.000604995
0.000615441
0.000625895
0.000636351
0.000646799
0.000657232
0.000667641
0.000678017
0.000688351
0.000698632
0.00070885
0.00071899
0.000729036
0.000738966
0.000748752
0.000758351
0.000767696
0.000776682
0.000785101
0.000793486
0.00080172
0.00080983
0.000817796
0.000825619
0.00083329
0.000840803
0.000848153
0.000855334
0.000862342
0.000869171
0.000875817
0.000882274
0.000888539
0.000894607
0.000900475
0.000906138
0.000911592
0.000916836
0.000921865
0.000926677
0.00093127
0.000935639
0.000939782
0.000943697
0.000947383
0.000950839
0.000954066
0.000957063
0.000959819
0.00096236
0.00096473
0.000966779
0.000968456
0.000969947
0.000971375
0.000972495
0.000973369
0.000974013
0.000974427
0.000974615
0.000974579
0.000974321
0.000973845
0.000973156
0.000972257
0.000971152
0.000969844
0.000968339
0.000966641
0.000964755
0.000962686
0.000960439
0.000958022
0.000955442
0.000952707
0.000949833
0.000946838
0.000943728
0.000940412
0.000936817
0.000933071
0.00092909
0.00092423
0.000917375
0.000909732
0.000901862
0.000893854
0.000885818
0.000877697
0.000869458
0.000861153
0.000852798
0.000844389
0.000835904
0.00082729
0.000818407
0.000808991
0.000797701
0.000769237
1.77459e-06
3.95429e-05
8.33979e-05
0.000114159
0.000135076
0.000150251
0.000162668
0.000174105
0.00018539
0.000197015
0.000209105
0.000221655
0.000234608
0.000247853
0.000261264
0.000274721
0.000288058
0.000301129
0.00031382
0.000326041
0.000337719
0.000348789
0.000359182
0.000368808
0.000377671
0.000385826
0.000393285
0.000400038
0.000406035
0.000411533
0.000417275
0.000423152
0.000429053
0.000434973
0.000440614
0.000445264
0.000449072
0.000451262
0.000455134
0.000462329
0.000480953
0.000497808
0.000512234
0.00052731
0.000542292
0.000557453
0.000572686
0.000588072
0.000603584
0.000619255
0.000635079
0.000651073
0.000667239
0.000683585
0.000700115
0.000716831
0.000733739
0.000750838
0.000768131
0.000785618
0.000803298
0.000821169
0.00083923
0.000857479
0.000875912
0.000894521
0.000913301
0.000932242
0.000951334
0.000970561
0.00098992
0.00100943
0.00102913
0.00104901
0.001069
0.00108908
0.00110923
0.00112943
0.00114969
0.00117001
0.00119036
0.00121074
0.00123113
0.0012515
0.00127185
0.00129217
0.00131242
0.00133261
0.0013527
0.00137268
0.00139254
0.00141224
0.00143176
0.00145108
0.00147016
0.00148896
0.00150743
0.00152552
0.00154316
0.0015604
0.00157741
0.00159413
0.00161058
0.00162672
0.00164255
0.00165805
0.00167322
0.00168805
0.00170252
0.00171662
0.00173034
0.00174367
0.00175661
0.00176914
0.00178125
0.00179295
0.00180421
0.00181504
0.00182542
0.00183536
0.00184484
0.00185386
0.00186241
0.00187049
0.00187809
0.00188521
0.00189186
0.00189802
0.0019037
0.0019089
0.00191365
0.00191801
0.00192179
0.00192479
0.00192742
0.00192976
0.00193156
0.00193286
0.00193368
0.00193402
0.0019339
0.00193332
0.00193228
0.0019308
0.00192888
0.00192652
0.00192375
0.00192056
0.00191696
0.00191296
0.00190859
0.00190383
0.00189871
0.00189325
0.00188745
0.00188133
0.00187493
0.00186825
0.0018613
0.00185399
0.00184624
0.00183815
0.00182962
0.00182009
0.00180869
0.00179617
0.00178316
0.00176984
0.00175636
0.00174273
0.00172887
0.00171485
0.00170067
0.00168635
0.00167184
0.00165704
0.00164167
0.00162505
0.00160443
0.00156162
2.8469e-06
5.2055e-05
0.000108585
0.000149921
0.000178853
0.000200039
0.000216916
0.000231739
0.000245835
0.00025991
0.000274271
0.000289011
0.000304114
0.000319519
0.000335078
0.000350589
0.0003659
0.000380884
0.000395441
0.000409493
0.000422989
0.000435909
0.000448277
0.000460183
0.000471684
0.000482835
0.000493764
0.00050465
0.000515715
0.000527223
0.000539409
0.000552299
0.000565818
0.000579814
0.000594062
0.000608408
0.000622933
0.000637357
0.000653617
0.000672103
0.000693111
0.000714158
0.000735014
0.000756081
0.000777278
0.00079865
0.000820195
0.000841934
0.000863875
0.000886029
0.000908404
0.000931013
0.000953862
0.000976958
0.00100031
0.00102391
0.00104777
0.00107188
0.00109626
0.00112089
0.00114578
0.00117091
0.0011963
0.00122193
0.00124779
0.00127388
0.00130019
0.00132671
0.00135342
0.00138032
0.0014074
0.00143466
0.00146211
0.00148972
0.00151747
0.00154532
0.00157326
0.00160127
0.00162933
0.00165743
0.00168556
0.00171369
0.0017418
0.00176988
0.00179789
0.00182583
0.00185366
0.00188137
0.00190893
0.00193631
0.0019635
0.00199046
0.00201716
0.00204358
0.00206968
0.00209542
0.00212077
0.00214567
0.00217013
0.00219417
0.00221785
0.00224115
0.00226404
0.00228651
0.00230854
0.00233013
0.00235124
0.00237186
0.00239199
0.00241161
0.0024307
0.00244924
0.00246724
0.00248467
0.00250152
0.00251779
0.00253346
0.00254852
0.00256297
0.00257679
0.00258998
0.00260253
0.00261443
0.00262568
0.00263627
0.00264619
0.00265545
0.00266404
0.00267196
0.00267922
0.0026859
0.00269206
0.00269722
0.00270146
0.0027053
0.00270855
0.0027111
0.00271296
0.00271417
0.00271472
0.00271462
0.00271389
0.00271253
0.00271055
0.00270796
0.00270477
0.00270099
0.00269664
0.00269173
0.00268626
0.00268025
0.00267372
0.00266669
0.00265917
0.00265117
0.00264273
0.00263387
0.00262461
0.00261494
0.00260479
0.00259413
0.00258299
0.00257131
0.00255871
0.00254467
0.00252953
0.00251374
0.00249751
0.00248101
0.00246425
0.00244721
0.00242994
0.00241244
0.00239474
0.0023768
0.00235855
0.00233966
0.00231919
0.00229394
0.00224855
3.85673e-06
6.20412e-05
0.000128814
0.000179309
0.000215589
0.000242505
0.000263791
0.000282015
0.000298809
0.000315122
0.00033144
0.000347968
0.000364749
0.000381739
0.000398841
0.000415939
0.000432929
0.000449721
0.00046625
0.000482472
0.000498369
0.000513952
0.000529259
0.00054436
0.000559344
0.000574329
0.000589477
0.000604982
0.000621056
0.000637901
0.000655665
0.000674395
0.000694037
0.000714444
0.000735417
0.000756741
0.0007784
0.000800548
0.000823669
0.000847914
0.000873132
0.000898689
0.000924322
0.00095017
0.000976237
0.00100253
0.00102907
0.00105585
0.00108288
0.00111017
0.00113772
0.00116555
0.00119367
0.00122208
0.00125078
0.00127979
0.00130909
0.0013387
0.0013686
0.00139879
0.00142928
0.00146005
0.00149109
0.00152241
0.00155399
0.00158582
0.00161789
0.00165019
0.0016827
0.00171542
0.00174832
0.00178141
0.00181466
0.00184807
0.0018816
0.00191523
0.00194894
0.00198271
0.00201651
0.00205033
0.00208414
0.00211792
0.00215165
0.00218531
0.00221886
0.0022523
0.00228558
0.00231869
0.0023516
0.00238428
0.00241671
0.00244885
0.00248069
0.00251218
0.00254331
0.00257404
0.00260435
0.00263425
0.0026637
0.00269271
0.00272127
0.00274937
0.00277699
0.0028041
0.0028307
0.00285675
0.00288224
0.00290716
0.00293148
0.0029552
0.00297829
0.00300073
0.00302253
0.00304365
0.00306409
0.00308384
0.00310288
0.0031212
0.00313879
0.00315564
0.00317174
0.00318709
0.00320167
0.00321547
0.0032285
0.00324074
0.00325219
0.00326285
0.00327272
0.00328182
0.00329034
0.00329798
0.00330455
0.00331011
0.00331524
0.00331956
0.00332307
0.00332578
0.0033277
0.00332884
0.00332922
0.00332884
0.00332772
0.00332586
0.00332327
0.00331996
0.00331595
0.00331126
0.00330588
0.00329985
0.00329317
0.00328586
0.00327794
0.00326942
0.00326033
0.0032507
0.00324054
0.00322988
0.0032187
0.00320698
0.00319467
0.00318181
0.00316836
0.00315409
0.00313872
0.00312237
0.00310532
0.00308776
0.00306982
0.00305154
0.00303295
0.00301405
0.00299489
0.00297549
0.00295582
0.0029358
0.00291509
0.00289277
0.00286572
0.00282246
4.76416e-06
6.99472e-05
0.000145323
0.000203497
0.000246522
0.000278891
0.000304488
0.000326082
0.000345524
0.000363971
0.000382085
0.000400206
0.00041847
0.000436902
0.000455468
0.000474111
0.000492771
0.000511399
0.000529965
0.000548453
0.00056687
0.000585242
0.000603618
0.000622065
0.000640671
0.000659544
0.000678817
0.000698635
0.000719145
0.000740477
0.000762723
0.000785912
0.000810005
0.000834898
0.000860455
0.000886536
0.000913074
0.0009401
0.000967725
0.000995982
0.00102477
0.00105393
0.00108336
0.00111306
0.00114303
0.00117326
0.00120377
0.00123457
0.00126564
0.00129702
0.00132871
0.0013607
0.001393
0.00142561
0.00145852
0.00149174
0.00152527
0.00155911
0.00159324
0.00162767
0.0016624
0.00169741
0.00173269
0.00176824
0.00180405
0.0018401
0.00187639
0.0019129
0.00194962
0.00198653
0.00202361
0.00206086
0.00209826
0.00213579
0.00217342
0.00221114
0.00224891
0.00228673
0.00232456
0.00236239
0.00240019
0.00243794
0.00247561
0.00251319
0.00255064
0.00258794
0.00262507
0.002662
0.00269871
0.00273516
0.00277133
0.0028072
0.00284274
0.00287791
0.0029127
0.00294708
0.00298103
0.00301454
0.00304758
0.00308015
0.00311223
0.0031438
0.00317483
0.00320532
0.00323523
0.00326454
0.00329325
0.00332132
0.00334874
0.0033755
0.00340157
0.00342693
0.00345158
0.0034755
0.00349866
0.00352107
0.0035427
0.00356354
0.00358358
0.00360282
0.00362123
0.00363881
0.00365555
0.00367144
0.00368647
0.00370064
0.00371394
0.00372638
0.00373794
0.00374875
0.00375885
0.00376786
0.00377577
0.00378275
0.00378912
0.00379459
0.00379916
0.00380287
0.00380571
0.00380769
0.00380883
0.00380913
0.00380861
0.00380728
0.00380514
0.0038022
0.00379849
0.00379402
0.00378879
0.00378283
0.00377614
0.00376876
0.00376068
0.00375194
0.00374256
0.00373255
0.00372194
0.00371076
0.00369899
0.00368661
0.00367361
0.00366001
0.00364578
0.00363082
0.00361496
0.00359824
0.00358082
0.00356285
0.00354442
0.00352561
0.00350644
0.00348694
0.00346715
0.0034471
0.0034268
0.00340617
0.00338496
0.00336229
0.00333542
0.0032961
5.54284e-06
7.61037e-05
0.000158481
0.000223265
0.000272362
0.000309833
0.000339589
0.000364506
0.000386586
0.000407152
0.000427024
0.000446675
0.00046635
0.000486158
0.000506131
0.000526263
0.000546539
0.000566942
0.000587469
0.000608126
0.000628934
0.000649926
0.000671149
0.00069266
0.000714531
0.000736841
0.000759681
0.000783142
0.000807312
0.000832264
0.000858044
0.000884665
0.000912095
0.000940268
0.000969098
0.000998493
0.00102839
0.00105875
0.00108958
0.00112087
0.00115258
0.00118465
0.00121703
0.00124972
0.0012827
0.00131597
0.00134954
0.0013834
0.00141756
0.00145202
0.00148678
0.00152185
0.00155723
0.0015929
0.00162889
0.00166517
0.00170176
0.00173865
0.00177583
0.00181329
0.00185104
0.00188907
0.00192736
0.0019659
0.00200469
0.00204372
0.00208296
0.00212242
0.00216206
0.00220189
0.00224188
0.00228202
0.00232229
0.00236267
0.00240314
0.00244368
0.00248427
0.00252488
0.0025655
0.00260611
0.00264667
0.00268718
0.00272759
0.0027679
0.00280807
0.00284808
0.00288791
0.00292753
0.00296691
0.00300604
0.00304487
0.00308339
0.00312157
0.00315939
0.00319682
0.00323383
0.00327042
0.00330655
0.00334221
0.00337738
0.00341203
0.00344616
0.00347973
0.00351272
0.00354511
0.00357688
0.00360802
0.00363849
0.00366827
0.00369736
0.00372573
0.00375336
0.00378024
0.00380635
0.00383168
0.0038562
0.0038799
0.00390278
0.00392482
0.003946
0.00396632
0.00398576
0.00400431
0.00402197
0.00403872
0.00405456
0.00406949
0.00408349
0.00409659
0.00410899
0.00412039
0.00413079
0.00414001
0.00414841
0.004156
0.00416264
0.00416836
0.00417315
0.00417703
0.00418
0.00418208
0.00418327
0.00418359
0.00418305
0.00418165
0.00417942
0.00417635
0.00417247
0.00416779
0.00416233
0.00415609
0.0041491
0.00414137
0.00413293
0.00412379
0.00411398
0.00410351
0.00409241
0.00408067
0.0040683
0.00405527
0.0040416
0.0040273
0.00401229
0.00399651
0.00397996
0.00396273
0.00394492
0.00392662
0.0039079
0.00388878
0.00386932
0.00384956
0.00382954
0.0038093
0.0037888
0.00376785
0.00374569
0.00372003
0.00368472
6.18034e-06
8.07406e-05
0.000168686
0.000239114
0.000293616
0.000335802
0.000369518
0.000397682
0.000422392
0.000445094
0.000466739
0.000487921
0.000508993
0.000530145
0.000551472
0.000573017
0.000594802
0.00061684
0.000639148
0.000661753
0.000684679
0.000707957
0.000731625
0.000755729
0.000780317
0.000805443
0.00083116
0.000857517
0.000884561
0.000912325
0.000940826
0.000970061
0.00100001
0.00103062
0.00106183
0.0010936
0.00112586
0.00115857
0.00119171
0.00122524
0.00125915
0.00129339
0.00132796
0.00136285
0.00139804
0.00143354
0.00146934
0.00150543
0.00154181
0.00157848
0.00161543
0.00165267
0.0016902
0.00172802
0.00176612
0.00180451
0.00184318
0.00188213
0.00192135
0.00196084
0.00200059
0.0020406
0.00208085
0.00212134
0.00216207
0.002203
0.00224415
0.00228549
0.00232701
0.00236869
0.00241053
0.00245251
0.0024946
0.0025368
0.00257908
0.00262143
0.00266383
0.00270626
0.00274869
0.0027911
0.00283348
0.0028758
0.00291805
0.00296018
0.00300219
0.00304405
0.00308573
0.00312721
0.00316847
0.00320948
0.0032502
0.00329063
0.00333073
0.00337048
0.00340985
0.00344882
0.00348737
0.00352547
0.0035631
0.00360025
0.00363688
0.00367298
0.00370851
0.00374346
0.00377781
0.00381152
0.00384458
0.00387698
0.00390867
0.00393965
0.0039699
0.00399939
0.00402811
0.00405604
0.00408317
0.00410947
0.00413493
0.00415955
0.00418329
0.00420615
0.00422813
0.00424919
0.00426935
0.00428858
0.00430687
0.00432422
0.00434063
0.00435607
0.00437066
0.00438443
0.00439712
0.00440884
0.00441939
0.00442916
0.00443797
0.00444583
0.00445272
0.00445865
0.00446365
0.00446771
0.00447084
0.00447306
0.00447438
0.0044748
0.00447434
0.00447301
0.00447082
0.00446778
0.00446391
0.00445923
0.00445374
0.00444747
0.00444043
0.00443264
0.00442412
0.00441489
0.00440497
0.00439437
0.00438312
0.00437119
0.00435859
0.00434533
0.00433141
0.00431682
0.00430152
0.0042855
0.00426883
0.00425156
0.00423378
0.00421555
0.00419691
0.00417791
0.0041586
0.00413905
0.00411931
0.00409939
0.00407916
0.004058
0.00403405
0.0040032
6.68119e-06
8.40912e-05
0.000176319
0.000251478
0.000310724
0.000357206
0.000394646
0.000425947
0.000453255
0.000478105
0.000501546
0.000524279
0.000546765
0.000569264
0.00059191
0.000614788
0.000637947
0.00066142
0.000685226
0.000709369
0.000733924
0.000758935
0.000784437
0.000810465
0.000837047
0.000864214
0.000891997
0.000920422
0.000949511
0.000979277
0.00100973
0.00104085
0.00107262
0.00110501
0.00113798
0.00117148
0.00120546
0.0012399
0.00127474
0.00130997
0.00134556
0.00138148
0.0014177
0.00145418
0.00149085
0.00152779
0.00156505
0.00160259
0.0016404
0.00167846
0.00171677
0.00175534
0.00179417
0.00183326
0.0018726
0.0019122
0.00195205
0.00199215
0.0020325
0.0020731
0.00211394
0.00215501
0.00219631
0.00223783
0.00227956
0.00232151
0.00236365
0.00240597
0.00244847
0.00249114
0.00253396
0.00257692
0.00262001
0.00266321
0.0027065
0.00274987
0.00279331
0.00283679
0.0028803
0.00292382
0.00296732
0.00301079
0.0030542
0.00309753
0.00314077
0.00318388
0.00322684
0.00326963
0.00331222
0.00335459
0.00339671
0.00343856
0.00348011
0.00352133
0.0035622
0.0036027
0.00364279
0.00368246
0.00372168
0.00376042
0.00379866
0.00383638
0.00387354
0.00391013
0.00394611
0.00398147
0.00401618
0.00405021
0.00408355
0.00411617
0.00414805
0.00417917
0.00420951
0.00423905
0.00426778
0.00429567
0.00432271
0.00434888
0.00437417
0.00439857
0.00442206
0.00444462
0.00446626
0.00448695
0.00450669
0.00452547
0.00454327
0.0045601
0.00457611
0.00459112
0.00460513
0.00461815
0.00463008
0.00464115
0.00465123
0.00466031
0.00466841
0.00467554
0.00468171
0.00468693
0.00469121
0.00469455
0.00469697
0.00469848
0.00469909
0.00469881
0.00469765
0.00469563
0.00469276
0.00468906
0.00468454
0.00467921
0.00467309
0.0046662
0.00465856
0.00465019
0.0046411
0.00463132
0.00462085
0.0046097
0.00459785
0.00458533
0.00457214
0.00455829
0.00454375
0.00452854
0.00451267
0.00449622
0.00447923
0.00446177
0.00444388
0.00442563
0.00440707
0.00438828
0.00436933
0.00435027
0.00433102
0.00431109
0.00428903
0.00426247
7.05506e-06
8.63555e-05
0.000181717
0.000260746
0.000324081
0.000374425
0.000415319
0.000449606
0.000479453
0.000506465
0.000531699
0.000555882
0.000579467
0.000602865
0.000626366
0.000650121
0.000674215
0.000698704
0.00072363
0.000749039
0.000774958
0.000801408
0.000828419
0.000856025
0.000884228
0.00091304
0.000942469
0.000972524
0.00100321
0.00103451
0.00106642
0.00109893
0.001132
0.00116561
0.00119972
0.0012343
0.0012693
0.00130471
0.00134047
0.00137658
0.001413
0.00144972
0.00148672
0.001524
0.00156161
0.00159947
0.00163751
0.00167578
0.00171424
0.00175291
0.00179178
0.00183085
0.00187014
0.00190965
0.00194938
0.00198933
0.00202951
0.00206991
0.00211053
0.00215138
0.00219246
0.00223376
0.00227527
0.002317
0.00235895
0.0024011
0.00244346
0.00248602
0.00252876
0.00257169
0.0026148
0.00265806
0.00270149
0.00274505
0.00278875
0.00283256
0.00287647
0.00292047
0.00296453
0.00300865
0.0030528
0.00309695
0.0031411
0.00318522
0.00322928
0.00327327
0.00331715
0.00336091
0.00340451
0.00344793
0.00349115
0.00353413
0.00357686
0.0036193
0.00366142
0.00370321
0.00374462
0.00378563
0.00382623
0.00386636
0.00390602
0.00394518
0.00398379
0.00402184
0.00405931
0.00409615
0.00413236
0.0041679
0.00420274
0.00423687
0.00427026
0.0043029
0.00433475
0.00436579
0.00439602
0.00442541
0.00445394
0.00448159
0.00450836
0.00453421
0.00455915
0.00458316
0.00460623
0.00462833
0.00464948
0.00466964
0.00468882
0.00470705
0.00472436
0.00474065
0.00475599
0.00477032
0.00478364
0.00479604
0.0048074
0.00481774
0.00482709
0.00483546
0.00484286
0.0048493
0.00485479
0.00485933
0.00486295
0.00486564
0.00486743
0.00486831
0.00486832
0.00486745
0.00486572
0.00486315
0.00485975
0.00485554
0.00485053
0.00484473
0.00483817
0.00483087
0.00482284
0.00481409
0.00480465
0.0047945
0.00478366
0.00477213
0.00475992
0.00474705
0.00473351
0.0047193
0.00470445
0.00468901
0.00467302
0.00465654
0.00463962
0.00462232
0.00460472
0.00458689
0.00456892
0.00455089
0.00453277
0.00451417
0.00449399
0.00447096
7.30832e-06
8.76898e-05
0.000185166
0.000267299
0.000334032
0.0003878
0.000431869
0.000468936
0.000501037
0.000529639
0.000556136
0.000581419
0.000606127
0.000630679
0.000655308
0.000680149
0.00070531
0.000730867
0.000756879
0.00078339
0.000810424
0.000837994
0.000866107
0.000894762
0.000923988
0.000953794
0.000984183
0.00101515
0.0010467
0.00107881
0.00111146
0.00114463
0.0011783
0.00121244
0.00124702
0.00128201
0.00131737
0.00135309
0.00138912
0.00142545
0.00146205
0.0014989
0.00153599
0.0015733
0.00161083
0.00164855
0.00168654
0.00172479
0.00176316
0.00180162
0.00184021
0.00187894
0.00191784
0.00195692
0.00199619
0.00203565
0.00207531
0.00211518
0.00215527
0.00219557
0.0022361
0.00227685
0.00231784
0.00235906
0.00240052
0.00244222
0.00248415
0.00252632
0.00256872
0.00261135
0.00265421
0.00269728
0.00274056
0.00278405
0.00282772
0.00287157
0.00291559
0.00295976
0.00300406
0.00304848
0.00309299
0.00313758
0.00318223
0.0032269
0.00327159
0.00331626
0.00336088
0.00340544
0.0034499
0.00349423
0.00353841
0.00358241
0.0036262
0.00366974
0.00371301
0.00375598
0.00379862
0.00384089
0.00388278
0.00392423
0.00396523
0.00400575
0.00404575
0.00408521
0.00412409
0.00416237
0.00420002
0.00423701
0.00427332
0.00430891
0.00434378
0.00437788
0.0044112
0.00444372
0.00447542
0.00450627
0.00453626
0.00456537
0.00459359
0.00462089
0.00464727
0.00467271
0.00469719
0.00472071
0.00474326
0.00476482
0.00478539
0.00480498
0.0048236
0.00484122
0.00485791
0.0048736
0.0048883
0.00490211
0.00491476
0.0049264
0.00493705
0.00494672
0.00495541
0.00496314
0.00496991
0.00497574
0.00498063
0.00498459
0.00498765
0.00498981
0.00499108
0.00499148
0.00499102
0.00498971
0.00498757
0.00498461
0.00498086
0.00497631
0.004971
0.00496494
0.00495814
0.00495062
0.00494239
0.00493345
0.00492381
0.00491348
0.00490246
0.00489077
0.00487841
0.00486539
0.00485174
0.00483748
0.00482266
0.00480734
0.00479156
0.00477539
0.00475889
0.00474218
0.00472533
0.00470845
0.00469155
0.00467433
0.00465593
0.00463588
7.46083e-06
8.81947e-05
0.000186857
0.00027139
0.000340868
0.000397498
0.000444004
0.000483117
0.000517069
0.000547617
0.000575917
0.0006028
0.000628884
0.000654564
0.000680102
0.00070573
0.000731606
0.000757833
0.00078448
0.000811593
0.0008392
0.000867317
0.000895953
0.000925113
0.000954804
0.000985026
0.00101578
0.00104704
0.00107881
0.00111107
0.0011438
0.00117697
0.00121056
0.00124455
0.00127889
0.00131358
0.00134857
0.00138385
0.00141939
0.00145516
0.00149115
0.00152734
0.00156368
0.00160015
0.00163679
0.00167368
0.00171091
0.0017482
0.00178556
0.00182297
0.00186038
0.00189789
0.00193552
0.0019733
0.00201125