/*--------------------------------*- C++ -*----------------------------------*\
  =========                 |
  \\      /  F ield         | OpenFOAM: The Open Source CFD Toolbox
   \\    /   O peration     | Website:  https://openfoam.org
    \\  /    A nd           | Version:  13
     \\/     M anipulation  |
\*---------------------------------------------------------------------------*/
FoamFile
{
    format      ascii;
    class       volScalarField;
    location    "286";
    object      p;
}
// * * * * * * * * * * * * * * * * * * * * * * * * * * * * * * * * * * * * * //

dimensions      [0 2 -2 0 0 0 0];

internalField   nonuniform List<scalar> 
12225
(
-3.90409
-4.82311
-5.13443
-5.20628
-5.28836
-5.38869
-5.4768
-5.55228
-5.62301
-5.69169
-5.75794
-5.82209
-5.88577
-5.94987
-6.01672
-6.0898
-6.17484
-6.29163
-4.16618
-4.88513
-5.1388
-5.19993
-5.27695
-5.37352
-5.45987
-5.5347
-5.60475
-5.67247
-5.73763
-5.80082
-5.86313
-5.92594
-5.99109
-6.06101
-6.13912
-6.218
-4.32845
-4.87527
-5.11168
-5.19009
-5.27351
-5.36953
-5.45533
-5.53004
-5.59973
-5.66669
-5.73098
-5.79338
-5.85476
-5.91671
-5.98008
-6.04621
-6.11389
-6.17234
-4.46016
-4.87859
-5.10792
-5.19621
-5.27892
-5.37175
-5.45565
-5.52925
-5.59843
-5.66479
-5.7285
-5.7903
-5.85121
-5.91244
-5.97402
-6.03598
-6.09567
-6.14671
-4.57908
-4.89452
-5.11341
-5.20617
-5.28555
-5.37486
-5.45725
-5.5295
-5.59786
-5.66361
-5.72673
-5.78765
-5.84761
-5.90738
-5.96635
-6.02391
-6.07748
-6.12283
-4.68905
-4.91444
-5.11834
-5.21528
-5.29293
-5.379
-5.45991
-5.53118
-5.59818
-5.66287
-5.72549
-5.78518
-5.84328
-5.90118
-5.95763
-6.01151
-6.06044
-6.10169
-4.78417
-4.94435
-5.12471
-5.22441
-5.30111
-5.38346
-5.46229
-5.53275
-5.5987
-5.66231
-5.72394
-5.78267
-5.83915
-5.89471
-5.94847
-5.99929
-6.0451
-6.08323
-4.86664
-4.98036
-5.13517
-5.23472
-5.31021
-5.38855
-5.46483
-5.53417
-5.599
-5.66135
-5.72153
-5.7791
-5.83428
-5.8878
-5.9391
-5.98718
-6.03062
-6.06742
-4.93867
-5.0198
-5.14987
-5.24617
-5.32005
-5.3944
-5.46779
-5.53566
-5.59916
-5.66008
-5.71876
-5.77493
-5.82864
-5.88021
-5.92924
-5.97489
-6.01621
-6.05205
-5.00198
-5.06052
-5.1682
-5.25879
-5.33055
-5.40105
-5.47127
-5.53729
-5.59928
-5.65863
-5.71573
-5.77036
-5.82249
-5.87217
-5.91913
-5.96275
-6.00239
-6.03741
-5.05794
-5.10088
-5.18929
-5.27256
-5.34159
-5.40843
-5.4753
-5.53913
-5.59941
-5.65708
-5.71249
-5.76549
-5.81596
-5.86386
-5.90895
-5.95082
-5.98911
-6.02337
-5.10358
-5.13668
-5.21032
-5.28614
-5.35211
-5.41571
-5.47944
-5.54102
-5.59957
-5.65559
-5.70939
-5.76083
-5.80976
-5.85609
-5.89963
-5.94009
-5.97728
-6.0109
-5.14416
-5.17046
-5.2318
-5.30017
-5.36275
-5.4232
-5.48383
-5.54304
-5.59975
-5.65409
-5.70624
-5.75612
-5.80353
-5.84837
-5.89048
-5.92968
-5.9659
-5.99889
-5.18521
-5.20612
-5.25629
-5.31659
-5.37495
-5.43189
-5.48906
-5.54547
-5.59996
-5.65231
-5.70258
-5.75066
-5.79638
-5.8396
-5.88022
-5.91812
-5.9533
-5.98563
-5.22537
-5.24204
-5.28276
-5.33499
-5.38841
-5.44149
-5.49498
-5.54821
-5.60011
-5.65019
-5.69833
-5.74443
-5.7883
-5.82981
-5.86888
-5.90546
-5.93957
-5.97114
-5.26264
-5.27609
-5.30931
-5.35413
-5.40232
-5.45134
-5.50107
-5.55094
-5.59998
-5.64755
-5.69341
-5.73738
-5.7793
-5.81905
-5.85656
-5.8918
-5.92481
-5.95555
-5.2941
-5.30524
-5.33297
-5.37173
-5.41506
-5.46016
-5.50632
-5.5529
-5.59902
-5.64403
-5.68756
-5.72938
-5.76936
-5.80736
-5.84332
-5.87724
-5.90915
-5.93905
-5.31534
-5.32503
-5.34937
-5.38411
-5.42382
-5.46577
-5.50899
-5.55278
-5.59635
-5.63903
-5.68042
-5.72027
-5.75844
-5.79482
-5.82936
-5.86204
-5.89289
-5.92195
-5.3191
-5.32843
-5.35198
-5.38562
-5.42401
-5.46447
-5.50609
-5.54826
-5.59019
-5.63126
-5.67107
-5.70944
-5.74621
-5.78132
-5.81471
-5.84639
-5.87638
-5.90474
-5.29808
-5.30885
-5.33563
-5.37258
-5.41311
-5.45466
-5.49691
-5.5394
-5.58135
-5.62217
-5.66155
-5.6994
-5.7356
-5.77012
-5.80294
-5.83408
-5.86358
-5.89151
-5.2649
-5.2784
-5.31135
-5.35434
-5.39866
-5.44248
-5.48648
-5.53033
-5.57313
-5.61437
-5.65395
-5.69181
-5.72792
-5.76227
-5.79488
-5.8258
-5.85509
-5.88282
-5.22026
-5.23885
-5.28218
-5.33383
-5.38272
-5.42936
-5.47582
-5.52159
-5.56561
-5.60759
-5.64763
-5.68576
-5.72198
-5.75633
-5.78889
-5.81974
-5.84893
-5.87656
-5.16508
-5.19278
-5.25194
-5.3139
-5.36704
-5.41665
-5.46603
-5.51392
-5.5592
-5.60201
-5.64261
-5.6811
-5.71747
-5.7519
-5.7845
-5.81538
-5.84452
-5.87207
-5.09889
-5.14294
-5.22434
-5.29642
-5.35259
-5.40535
-5.45782
-5.5076
-5.55401
-5.59764
-5.63886
-5.67767
-5.71413
-5.74856
-5.78124
-5.8122
-5.84139
-5.869
-5.02001
-5.09315
-5.20267
-5.28209
-5.33977
-5.396
-5.45141
-5.50258
-5.54987
-5.59427
-5.63612
-5.67521
-5.71168
-5.74616
-5.77888
-5.80977
-5.83878
-5.86628
-4.92563
-5.04872
-5.189
-5.27069
-5.32887
-5.38851
-5.44629
-5.4984
-5.54639
-5.59128
-5.63326
-5.67201
-5.70828
-5.74328
-5.7768
-5.80815
-5.83721
-5.86412
-4.81273
-5.01533
-5.18244
-5.26069
-5.32035
-5.38236
-5.44152
-5.49508
-5.54418
-5.58942
-5.63132
-5.6703
-5.7072
-5.74262
-5.77622
-5.80753
-5.83657
-5.86348
-4.68488
-4.99578
-5.18025
-5.24927
-5.31109
-5.37728
-5.43877
-5.49382
-5.54368
-5.58951
-5.63202
-5.67172
-5.70904
-5.7444
-5.77779
-5.80913
-5.83829
-5.86524
-4.52855
-4.99374
-5.19921
-5.255
-5.31041
-5.37738
-5.43902
-5.49351
-5.54311
-5.5891
-5.63193
-5.67191
-5.7095
-5.74504
-5.77866
-5.81035
-5.83996
-5.86728
-4.31517
-4.95369
-5.20559
-5.26882
-5.32564
-5.39454
-5.45709
-5.51153
-5.56093
-5.6068
-5.64955
-5.68932
-5.72678
-5.76224
-5.79589
-5.82771
-5.85785
-5.8874
-6.64553
-6.64563
-6.64611
-6.6469
-6.64788
-6.64903
-6.65042
-6.6521
-6.65423
-6.65687
-6.66003
-6.66387
-6.66847
-6.67383
-6.67996
-6.68689
-6.69458
-6.70301
-6.71218
-6.72207
-6.73268
-6.744
-6.75603
-6.76875
-6.78218
-6.79628
-6.8111
-6.82662
-6.84292
-6.86001
-6.87786
-6.89634
-6.91548
-6.93537
-6.95565
-6.97665
-6.99948
-7.02398
-7.04884
-7.07343
-7.09699
-7.12027
-7.14574
-7.17308
-7.20073
-7.22865
-7.2568
-7.28515
-7.31365
-7.34228
-7.37098
-7.39972
-7.42842
-7.45703
-7.48547
-7.51369
-7.54158
-7.56908
-7.59607
-7.62246
-7.64814
-7.67298
-7.69686
-7.71968
-7.74128
-7.76151
-7.78015
-7.79701
-7.81201
-7.82515
-7.83634
-7.84532
-7.85169
-7.85511
-7.85542
-7.8525
-7.84626
-7.83652
-7.82306
-7.80567
-7.78412
-7.75821
-7.72775
-7.69252
-7.65234
-7.60701
-7.55635
-7.50017
-7.43829
-7.37056
-7.29682
-7.21693
-7.13073
-7.0381
-6.93892
-6.83308
-6.72049
-6.60106
-6.47473
-6.34138
-6.2011
-6.05386
-5.8996
-5.73837
-5.57016
-5.395
-5.21291
-5.02397
-4.82825
-4.62585
-4.41686
-4.20141
-3.97964
-3.7517
-3.51774
-3.27796
-3.03253
-2.78167
-2.52558
-2.26452
-1.99873
-1.72847
-1.45398
-1.17554
-0.893432
-0.607948
-0.319391
-0.0280784
0.265681
0.561569
0.859287
1.1585
1.45886
1.76001
2.06164
2.36344
2.66509
2.96623
3.26656
3.56574
3.86348
4.15946
4.45341
4.74504
5.03406
5.32023
5.60328
5.88297
6.15907
6.43137
6.69966
6.96374
7.22343
7.47859
7.72906
7.9747
8.21531
8.45052
8.67996
8.90433
9.12384
9.338
9.54683
9.75056
9.94891
10.1415
10.3284
10.5097
10.6856
10.8561
11.0207
11.1793
11.3321
11.4792
11.621
11.7578
11.8907
12.0211
12.1577
12.3006
-6.64386
-6.64433
-6.64509
-6.64576
-6.64621
-6.64666
-6.64733
-6.6484
-6.64984
-6.65155
-6.6535
-6.65571
-6.65842
-6.66197
-6.66642
-6.67176
-6.67795
-6.68498
-6.69282
-6.70148
-6.71095
-6.72123
-6.73233
-6.74425
-6.75699
-6.77057
-6.78499
-6.80026
-6.81639
-6.83331
-6.851
-6.86942
-6.88864
-6.90863
-6.92952
-6.95172
-6.97499
-6.99873
-7.02285
-7.04748
-7.07266
-7.09909
-7.12629
-7.15351
-7.18083
-7.20834
-7.23604
-7.26394
-7.292
-7.32019
-7.34847
-7.37679
-7.4051
-7.43334
-7.46143
-7.48931
-7.51689
-7.5441
-7.57083
-7.59698
-7.62245
-7.64712
-7.67086
-7.69356
-7.71508
-7.73523
-7.7538
-7.77075
-7.78629
-7.80035
-7.81219
-7.82105
-7.82693
-7.83017
-7.83069
-7.82836
-7.82282
-7.81373
-7.80093
-7.78425
-7.76347
-7.73839
-7.70881
-7.67452
-7.63534
-7.59107
-7.54152
-7.48651
-7.42587
-7.35942
-7.28702
-7.20852
-7.12376
-7.03263
-6.93499
-6.83075
-6.7198
-6.60207
-6.47749
-6.34609
-6.2077
-6.06227
-5.90989
-5.75048
-5.58409
-5.41074
-5.23048
-5.04337
-4.84948
-4.64889
-4.44171
-4.22806
-4.00807
-3.78189
-3.54968
-3.3116
-3.06786
-2.81864
-2.56416
-2.30467
-2.04041
-1.77162
-1.49856
-1.22149
-0.940696
-0.656465
-0.3691
-0.0789133
0.213781
0.508673
0.805461
1.10383
1.40341
1.70386
2.00486
2.30612
2.60729
2.90804
3.20805
3.507
3.80458
4.10049
4.39443
4.68613
4.9753
5.26168
5.54502
5.82506
6.10159
6.37436
6.64318
6.90785
7.16818
7.42399
7.67513
7.92143
8.1627
8.39859
8.62893
8.85511
9.07701
9.29268
9.50278
9.70715
9.90623
10.0992
10.2861
10.4673
10.6426
10.8128
10.9779
11.1373
11.2909
11.4389
11.5818
11.7199
11.8548
11.9875
12.1293
12.2681
-6.63912
-6.64049
-6.6423
-6.64351
-6.64409
-6.64449
-6.64505
-6.64596
-6.64733
-6.64915
-6.65146
-6.65425
-6.65759
-6.66156
-6.66623
-6.67164
-6.67781
-6.68475
-6.69248
-6.70099
-6.71029
-6.7204
-6.73132
-6.74304
-6.75558
-6.76894
-6.78313
-6.79814
-6.81399
-6.83062
-6.84802
-6.86613
-6.88498
-6.90459
-6.925
-6.94632
-6.96855
-6.99128
-7.01425
-7.03747
-7.06115
-7.08566
-7.11121
-7.13729
-7.16373
-7.19047
-7.21749
-7.24473
-7.27218
-7.29978
-7.3275
-7.35528
-7.38307
-7.41082
-7.43844
-7.46588
-7.49306
-7.51988
-7.54626
-7.57209
-7.59728
-7.62171
-7.64526
-7.66782
-7.68925
-7.70939
-7.72808
-7.74524
-7.76091
-7.77484
-7.78639
-7.79515
-7.80124
-7.80491
-7.80601
-7.80431
-7.7994
-7.79097
-7.77888
-7.76296
-7.74301
-7.71883
-7.69022
-7.65697
-7.61889
-7.5758
-7.5275
-7.47381
-7.41455
-7.34956
-7.27867
-7.20175
-7.11864
-7.02921
-6.93334
-6.83092
-6.72185
-6.60604
-6.48342
-6.35398
-6.21762
-6.07429
-5.924
-5.76673
-5.6025
-5.43134
-5.25329
-5.06839
-4.87673
-4.67837
-4.47343
-4.262
-4.04424
-3.82027
-3.59025
-3.35435
-3.11275
-2.86566
-2.61327
-2.35583
-2.09358
-1.82676
-1.55561
-1.2804
-1.00141
-0.718917
-0.433232
-0.144654
0.146496
0.439917
0.735307
1.03235
1.33069
1.62998
1.92992
2.2302
2.53047
2.83041
3.1297
3.42801
3.72504
4.02049
4.31407
4.60548
4.89446
5.18073
5.46403
5.74413
6.02079
6.29378
6.56288
6.82792
7.08868
7.345
7.59671
7.84366
8.08565
8.32244
8.55406
8.78183
9.00461
9.22089
9.43151
9.63659
9.83672
10.0312
10.2196
10.402
10.5784
10.7495
10.9156
11.0761
11.231
11.3805
11.5249
11.6649
11.8021
11.9368
12.0818
12.2085
-6.63295
-6.63515
-6.63839
-6.64078
-6.64216
-6.64313
-6.6441
-6.6453
-6.64687
-6.6489
-6.65144
-6.65453
-6.6582
-6.66249
-6.66743
-6.67305
-6.67937
-6.6864
-6.69416
-6.70266
-6.71192
-6.72195
-6.73274
-6.7443
-6.75663
-6.76973
-6.7836
-6.79822
-6.8136
-6.82971
-6.84653
-6.86407
-6.88232
-6.90134
-6.92117
-6.94185
-6.96335
-6.9855
-7.00813
-7.0312
-7.05475
-7.0789
-7.10373
-7.12908
-7.15485
-7.18098
-7.20743
-7.23416
-7.26111
-7.28826
-7.31555
-7.34293
-7.37034
-7.39773
-7.42503
-7.45217
-7.47907
-7.50565
-7.53181
-7.55746
-7.58249
-7.60679
-7.63025
-7.65273
-7.67412
-7.69425
-7.71299
-7.7302
-7.74575
-7.75944
-7.77096
-7.78014
-7.78692
-7.79121
-7.7928
-7.79148
-7.78695
-7.77901
-7.76748
-7.75216
-7.73286
-7.70937
-7.68149
-7.64903
-7.61179
-7.56958
-7.5222
-7.46948
-7.41124
-7.34731
-7.27754
-7.20176
-7.11984
-7.03164
-6.93705
-6.83594
-6.72822
-6.6138
-6.4926
-6.36457
-6.22964
-6.08778
-5.93898
-5.78323
-5.62054
-5.45093
-5.27444
-5.09112
-4.90103
-4.70427
-4.50091
-4.29109
-4.07491
-3.85252
-3.62408
-3.38975
-3.1497
-2.90414
-2.65328
-2.39733
-2.13654
-1.87115
-1.6014
-1.32755
-1.04988
-0.76868
-0.484238
-0.196859
0.0931388
0.385462
0.679809
0.975849
1.27323
1.57163
1.87076
2.17027
2.46983
2.76912
3.06782
3.36561
3.66218
3.95723
4.25047
4.5416
4.83036
5.11647
5.39968
5.67974
5.9564
6.22946
6.49868
6.76388
7.02486
7.28144
7.53346
7.78075
8.02314
8.26048
8.4928
8.72088
8.94385
9.16073
9.37203
9.57785
9.77865
9.97397
10.1633
10.3467
10.5242
10.6963
10.8632
11.0246
11.1805
11.331
11.4765
11.6176
11.7558
11.8904
12.0338
12.1473
-6.62719
-6.63016
-6.63486
-6.63854
-6.64091
-6.64265
-6.64427
-6.646
-6.64802
-6.65043
-6.65331
-6.65672
-6.66068
-6.66523
-6.67041
-6.67622
-6.6827
-6.68985
-6.6977
-6.70626
-6.71554
-6.72554
-6.73628
-6.74775
-6.75995
-6.77288
-6.78654
-6.80093
-6.81605
-6.83187
-6.84842
-6.86568
-6.88367
-6.90241
-6.92191
-6.94218
-6.96317
-6.9848
-7.007
-7.02973
-7.053
-7.07682
-7.10118
-7.12603
-7.15131
-7.17698
-7.20299
-7.2293
-7.25588
-7.28267
-7.30964
-7.33672
-7.36386
-7.391
-7.41808
-7.44503
-7.47176
-7.49819
-7.52424
-7.5498
-7.57477
-7.59903
-7.62248
-7.64499
-7.66642
-7.68663
-7.70548
-7.72282
-7.73851
-7.75233
-7.76409
-7.77362
-7.78077
-7.78539
-7.7873
-7.78629
-7.78213
-7.77462
-7.76355
-7.74873
-7.72995
-7.70702
-7.67974
-7.64789
-7.6113
-7.56976
-7.52309
-7.4711
-7.41361
-7.35047
-7.2815
-7.20656
-7.1255
-7.03819
-6.9445
-6.84432
-6.73754
-6.62409
-6.50387
-6.37682
-6.24289
-6.10205
-5.95428
-5.79957
-5.63793
-5.46938
-5.29395
-5.1117
-4.92269
-4.72701
-4.52474
-4.31599
-4.10089
-3.87958
-3.6522
-3.41893
-3.17993
-2.9354
-2.68556
-2.43063
-2.17082
-1.90639
-1.63757
-1.36463
-1.08784
-0.807495
-0.523873
-0.237292
0.0519505
0.343557
0.637227
0.932606
1.22936
1.5272
1.8258
2.12483
2.42395
2.72285
3.02119
3.31866
3.61497
3.90979
4.20284
4.49384
4.78251
5.06856
5.35176
5.63185
5.90858
6.18174
6.45111
6.71649
6.97768
7.2345
7.48678
7.73439
7.97717
8.215
8.44783
8.67608
8.8992
9.11658
9.32842
9.53476
9.73588
9.9315
10.1213
10.3053
10.4835
10.6562
10.8236
10.9854
11.1418
11.2928
11.4388
11.5802
11.7184
11.8515
11.9916
12.0931
-6.62333
-6.62712
-6.63295
-6.63768
-6.64094
-6.64346
-6.64575
-6.64807
-6.65062
-6.65351
-6.65682
-6.66062
-6.66495
-6.66984
-6.6753
-6.68137
-6.68807
-6.6954
-6.70339
-6.71205
-6.72139
-6.73142
-6.74215
-6.75357
-6.76571
-6.77855
-6.7921
-6.80635
-6.82131
-6.83697
-6.85335
-6.87044
-6.88824
-6.90677
-6.92602
-6.94597
-6.96659
-6.98783
-7.00966
-7.03204
-7.05496
-7.07843
-7.10241
-7.12688
-7.15179
-7.1771
-7.20278
-7.22879
-7.25509
-7.28162
-7.30835
-7.33523
-7.36219
-7.38918
-7.41613
-7.44297
-7.46962
-7.49599
-7.52201
-7.54756
-7.57255
-7.59686
-7.62037
-7.64296
-7.6645
-7.68485
-7.70385
-7.72136
-7.73722
-7.75126
-7.76327
-7.77309
-7.78056
-7.7855
-7.78772
-7.78703
-7.78321
-7.77606
-7.76538
-7.75097
-7.73262
-7.71013
-7.6833
-7.65193
-7.61582
-7.57478
-7.52863
-7.47717
-7.42023
-7.35764
-7.28925
-7.21489
-7.13443
-7.04772
-6.95464
-6.85509
-6.74895
-6.63613
-6.51656
-6.39017
-6.25692
-6.11676
-5.96968
-5.81567
-5.65473
-5.48689
-5.31218
-5.13066
-4.94238
-4.74742
-4.54589
-4.33788
-4.12351
-3.90294
-3.67629
-3.44375
-3.20547
-2.96167
-2.71254
-2.4583
-2.19918
-1.93542
-1.66726
-1.39495
-1.11879
-0.839037
-0.555998
-0.269978
0.0187302
0.309834
0.603012
0.897914
1.19423
1.49166
1.7899
2.08858
2.38739
2.68599
2.98408
3.28133
3.57744
3.87211
4.16504
4.45594
4.74454
5.03057
5.31377
5.59388
5.87068
6.14393
6.41342
6.67894
6.9403
7.19732
7.44985
7.69773
7.94083
8.17902
8.41223
8.64067
8.86396
9.08169
9.2939
9.5006
9.70194
9.89775
10.0878
10.2722
10.4508
10.6239
10.7915
10.9537
11.1103
11.2616
11.4078
11.549
11.6866
11.8177
11.9546
12.0453
-6.62208
-6.62653
-6.63316
-6.63864
-6.64262
-6.64582
-6.64872
-6.65161
-6.65465
-6.65799
-6.66172
-6.6659
-6.67058
-6.67578
-6.68154
-6.68786
-6.69478
-6.70231
-6.71045
-6.71924
-6.72867
-6.73877
-6.74953
-6.76096
-6.77308
-6.78588
-6.79936
-6.81353
-6.82839
-6.84395
-6.8602
-6.87715
-6.8948
-6.91314
-6.93217
-6.95187
-6.97221
-6.99318
-7.01472
-7.03684
-7.0595
-7.0827
-7.10641
-7.1306
-7.15524
-7.18031
-7.20576
-7.23157
-7.25768
-7.28405
-7.31064
-7.3374
-7.36428
-7.3912
-7.41811
-7.44493
-7.47158
-7.49799
-7.52405
-7.54968
-7.57475
-7.59917
-7.62282
-7.64556
-7.66726
-7.68778
-7.70698
-7.7247
-7.74077
-7.75503
-7.7673
-7.7774
-7.78516
-7.79038
-7.79289
-7.79249
-7.78897
-7.78213
-7.77176
-7.75767
-7.73965
-7.71749
-7.69099
-7.65996
-7.6242
-7.58351
-7.53771
-7.4866
-7.43002
-7.3678
-7.29977
-7.22578
-7.14568
-7.05935
-6.96665
-6.86747
-6.76171
-6.64928
-6.5301
-6.40411
-6.27126
-6.13152
-5.98486
-5.83127
-5.67077
-5.50337
-5.32911
-5.14804
-4.96022
-4.76573
-4.56467
-4.35713
-4.14326
-3.92316
-3.69701
-3.46495
-3.22716
-2.98385
-2.73521
-2.48146
-2.22282
-1.95952
-1.69181
-1.41996
-1.14423
-0.864912
-0.582296
-0.29668
-0.00835875
0.282372
0.575171
0.869713
1.16569
1.46283
1.76078
2.05919
2.35774
2.65612
2.95399
3.25106
3.547
3.84153
4.13434
4.42515
4.71368
4.99966
5.28283
5.56294
5.83976
6.11305
6.38261
6.64822
6.9097
7.16687
7.41957
7.66764
7.91095
8.14939
8.38288
8.61148
8.83491
9.05286
9.26533
9.47229
9.67382
9.8698
10.0601
10.2447
10.4236
10.597
10.7649
10.9272
11.084
11.2353
11.3814
11.5222
11.6588
11.7877
11.9217
12.0028
-6.62361
-6.62839
-6.63549
-6.64147
-6.646
-6.64974
-6.65316
-6.65652
-6.66
-6.66373
-6.66782
-6.67233
-6.67731
-6.68278
-6.68879
-6.69534
-6.70245
-6.71015
-6.71845
-6.72736
-6.73689
-6.74706
-6.75787
-6.76933
-6.78146
-6.79424
-6.80769
-6.82182
-6.83662
-6.85209
-6.86825
-6.88508
-6.90259
-6.92078
-6.93963
-6.95913
-6.97927
-7.00002
-7.02137
-7.04328
-7.06575
-7.08876
-7.11228
-7.1363
-7.16078
-7.1857
-7.21103
-7.23672
-7.26274
-7.28904
-7.31559
-7.34233
-7.3692
-7.39614
-7.42309
-7.44997
-7.47671
-7.50322
-7.5294
-7.55516
-7.58039
-7.60498
-7.62881
-7.65174
-7.67365
-7.69439
-7.71381
-7.73175
-7.74806
-7.76256
-7.77508
-7.78544
-7.79345
-7.79893
-7.80169
-7.80153
-7.79826
-7.79165
-7.78153
-7.76767
-7.74988
-7.72795
-7.70168
-7.67087
-7.63532
-7.59484
-7.54924
-7.49833
-7.44194
-7.37991
-7.31207
-7.23826
-7.15835
-7.07219
-6.97967
-6.88066
-6.77508
-6.66283
-6.54383
-6.41803
-6.28537
-6.14582
-5.99936
-5.84598
-5.6857
-5.51853
-5.3445
-5.16367
-4.97611
-4.78188
-4.58109
-4.37383
-4.16024
-3.94044
-3.71458
-3.48283
-3.24536
-3.00236
-2.75404
-2.50061
-2.24229
-1.9793
-1.71191
-1.44037
-1.16496
-0.885942
-0.603626
-0.3183
-0.030259
0.260184
0.552695
0.846962
1.14269
1.43959
1.73731
2.03551
2.33386
2.63203
2.92973
3.22663
3.52242
3.81681
4.1095
4.40021
4.68865
4.97456
5.25768
5.53776
5.81456
6.08786
6.35744
6.6231
6.88465
7.1419
7.3947
7.64289
7.88635
8.12496
8.35862
8.58733
8.81085
9.02895
9.2416
9.44875
9.65043
9.84655
10.037
10.2218
10.401
10.5745
10.7425
10.9049
11.0617
11.213
11.3588
11.4991
11.6345
11.761
11.8924
11.9651
-6.62789
-6.6327
-6.6399
-6.64612
-6.65098
-6.65511
-6.65891
-6.66263
-6.66645
-6.67049
-6.67487
-6.67963
-6.68484
-6.69053
-6.69673
-6.70346
-6.71073
-6.71857
-6.72699
-6.736
-6.74562
-6.75585
-6.7667
-6.77819
-6.79032
-6.8031
-6.81653
-6.83061
-6.84536
-6.86077
-6.87684
-6.89358
-6.91099
-6.92905
-6.94777
-6.96712
-6.98711
-7.00771
-7.02891
-7.0507
-7.07304
-7.09594
-7.11937
-7.1433
-7.16771
-7.19257
-7.21785
-7.24352
-7.26954
-7.29586
-7.32244
-7.34923
-7.37617
-7.40321
-7.43027
-7.45729
-7.48417
-7.51084
-7.53721
-7.56316
-7.58859
-7.61339
-7.63744
-7.6606
-7.68274
-7.70371
-7.72336
-7.74154
-7.75808
-7.77281
-7.78556
-7.79614
-7.80437
-7.81006
-7.81302
-7.81305
-7.80995
-7.80351
-7.79354
-7.77983
-7.76218
-7.74037
-7.71421
-7.6835
-7.64804
-7.60763
-7.5621
-7.51125
-7.45491
-7.39292
-7.32511
-7.25133
-7.17143
-7.08529
-6.99277
-6.89377
-6.7882
-6.67595
-6.55696
-6.43117
-6.29853
-6.15901
-6.01258
-5.85925
-5.69901
-5.5319
-5.35795
-5.17721
-4.98974
-4.79562
-4.59495
-4.38783
-4.17438
-3.95473
-3.72904
-3.49747
-3.26018
-3.01739
-2.76927
-2.51604
-2.25792
-1.99516
-1.72798
-1.45666
-1.18146
-0.902673
-0.620572
-0.335463
-0.0476357
0.242575
0.534862
0.82891
1.12444
1.42114
1.71867
2.01668
2.31485
2.61285
2.91037
3.20711
3.50275
3.797
4.08957
4.38016
4.6685
4.95433
5.23737
5.5174
5.79416
6.06743
6.337
6.60266
6.86422
7.12151
7.37435
7.62262
7.86616
8.10487
8.33864
8.5674
8.79098
9.00918
9.22195
9.42923
9.63102
9.82724
10.0178
10.2028
10.3821
10.5557
10.7238
10.8862
11.043
11.194
11.3395
11.4789
11.6131
11.7374
11.8663
11.9317
-6.63451
-6.63913
-6.64614
-6.65234
-6.65734
-6.66168
-6.66572
-6.66968
-6.67373
-6.67799
-6.68256
-6.6875
-6.69288
-6.69871
-6.70504
-6.71188
-6.71926
-6.72718
-6.73567
-6.74474
-6.7544
-6.76466
-6.77553
-6.78702
-6.79915
-6.8119
-6.8253
-6.83934
-6.85403
-6.86938
-6.88539
-6.90206
-6.91938
-6.93735
-6.95598
-6.97524
-6.99514
-7.01566
-7.03678
-7.0585
-7.0808
-7.10366
-7.12706
-7.15099
-7.17541
-7.2003
-7.22562
-7.25135
-7.27744
-7.30385
-7.33054
-7.35745
-7.38454
-7.41173
-7.43897
-7.46617
-7.49325
-7.52013
-7.54672
-7.57289
-7.59856
-7.62359
-7.64788
-7.67127
-7.69364
-7.71484
-7.73472
-7.75311
-7.76986
-7.78479
-7.79772
-7.80847
-7.81686
-7.8227
-7.82579
-7.82593
-7.82292
-7.81657
-7.80666
-7.79299
-7.77536
-7.75357
-7.72741
-7.69668
-7.66118
-7.62073
-7.57513
-7.52421
-7.46779
-7.40569
-7.33778
-7.26388
-7.18386
-7.09759
-7.00494
-6.90581
-6.8001
-6.68772
-6.5686
-6.44269
-6.30993
-6.17031
-6.02378
-5.87037
-5.71006
-5.54289
-5.3689
-5.18813
-5.00065
-4.80653
-4.60588
-4.39879
-4.18539
-3.96581
-3.7402
-3.50872
-3.27154
-3.02887
-2.78088
-2.52779
-2.26982
-2.0072
-1.74018
-1.46903
-1.194
-0.915388
-0.633466
-0.348532
-0.0608981
0.229115
0.521206
0.815063
1.1104
1.40693
1.70427
2.00208
2.30006
2.59788
2.89523
3.19179
3.48728
3.78138
4.0738
4.36426
4.65247
4.93818
5.22113
5.50106
5.77774
6.05095
6.32046
6.58608
6.84762
7.1049
7.35775
7.60604
7.84961
8.08836
8.32218
8.55097
8.77456
8.99282
9.20566
9.41302
9.61489
9.81119
10.0019
10.1869
10.3663
10.54
10.7081
10.8704
11.027
11.1778
11.3227
11.4613
11.5941
11.7163
11.843
11.9022
-6.6429
-6.64719
-6.65378
-6.65976
-6.66473
-6.66912
-6.67327
-6.67735
-6.68152
-6.6859
-6.69057
-6.69561
-6.70106
-6.70696
-6.71334
-6.72022
-6.72762
-6.73556
-6.74406
-6.75313
-6.76278
-6.77303
-6.78388
-6.79534
-6.80743
-6.82015
-6.8335
-6.84749
-6.86214
-6.87745
-6.89341
-6.91002
-6.9273
-6.94523
-6.96381
-6.98304
-7.0029
-7.0234
-7.04452
-7.06624
-7.08856
-7.11146
-7.13491
-7.15889
-7.18339
-7.20838
-7.23382
-7.25967
-7.28589
-7.31246
-7.33931
-7.36641
-7.39369
-7.42109
-7.44854
-7.47596
-7.50327
-7.53039
-7.5572
-7.58362
-7.60951
-7.63478
-7.65929
-7.6829
-7.70548
-7.72687
-7.74693
-7.76549
-7.78238
-7.79744
-7.81049
-7.82134
-7.82981
-7.8357
-7.83882
-7.83897
-7.83596
-7.82958
-7.81962
-7.80589
-7.78818
-7.76628
-7.73999
-7.70912
-7.67347
-7.63285
-7.58707
-7.53595
-7.47931
-7.417
-7.34885
-7.27472
-7.19446
-7.10794
-7.01505
-6.91567
-6.80972
-6.6971
-6.57776
-6.45162
-6.31865
-6.17882
-6.03212
-5.87853
-5.71807
-5.55076
-5.37665
-5.19578
-5.00822
-4.81404
-4.61335
-4.40623
-4.19283
-3.97326
-3.74769
-3.51626
-3.27916
-3.03656
-2.78867
-2.53569
-2.27784
-2.01535
-1.74848
-1.47747
-1.20261
-0.924156
-0.642412
-0.357662
-0.0702305
0.219585
0.511472
0.805127
1.10027
1.39659
1.69372
1.99133
2.2891
2.58671
2.88386
3.18024
3.47553
3.76945
4.06169
4.35198
4.64003
4.92559
5.2084
5.4882
5.76476
6.03786
6.30728
6.57282
6.83429
7.09151
7.34433
7.59259
7.83615
8.0749
8.30871
8.53748
8.76107
8.97934
9.19221
9.39962
9.60152
9.79786
9.98859
10.1737
10.3531
10.5268
10.6948
10.8571
11.0135
11.1639
11.3083
11.4459
11.5774
11.6974
11.8221
11.876
-6.65247
-6.65636
-6.66241
-6.668
-6.67278
-6.67709
-6.6812
-6.68528
-6.68947
-6.69386
-6.69854
-6.70357
-6.709
-6.71487
-6.72122
-6.72805
-6.73541
-6.7433
-6.75175
-6.76077
-6.77037
-6.78057
-6.79137
-6.80278
-6.81482
-6.82749
-6.84079
-6.85473
-6.86934
-6.88462
-6.90055
-6.91715
-6.93441
-6.95233
-6.97092
-6.99016
-7.01005
-7.03058
-7.05175
-7.07354
-7.09595
-7.11894
-7.14251
-7.16662
-7.19125
-7.21637
-7.24196
-7.26798
-7.29439
-7.32116
-7.34823
-7.37554
-7.40304
-7.43067
-7.45834
-7.48599
-7.51353
-7.54086
-7.5679
-7.59452
-7.62062
-7.64607
-7.67075
-7.69452
-7.71724
-7.73875
-7.75891
-7.77755
-7.7945
-7.80959
-7.82265
-7.83348
-7.84191
-7.84774
-7.85078
-7.85083
-7.84769
-7.84116
-7.83103
-7.81711
-7.79918
-7.77706
-7.75053
-7.7194
-7.68348
-7.64257
-7.59649
-7.54506
-7.48811
-7.42547
-7.357
-7.28253
-7.20193
-7.11508
-7.02186
-6.92216
-6.81588
-6.70295
-6.5833
-6.45688
-6.32364
-6.18355
-6.03661
-5.8828
-5.72214
-5.55466
-5.38039
-5.19939
-5.01171
-4.81745
-4.6167
-4.40955
-4.19613
-3.97657
-3.75102
-3.51965
-3.28262
-3.04011
-2.79232
-2.53946
-2.28174
-2.01941
-1.7527
-1.48187
-1.2072
-0.92894
-0.6474
-0.362872
-0.0756657
0.213924
0.505578
0.798993
1.09391
1.38999
1.68687
1.98422
2.28173
2.5791
2.876
3.17213
3.46719
3.76088
4.05289
4.34296
4.63081
4.91617
5.19878
5.4784
5.75479
6.02773
6.29701
6.56242
6.82378
7.0809
7.33363
7.58182
7.82532
8.06402
8.29778
8.52651
8.75006
8.96831
9.18117
9.38859
9.59051
9.78687
9.97762
10.1627
10.3421
10.5159
10.6838
10.8459
11.0021
11.1521
11.2958
11.4325
11.5626
11.6807
11.8034
11.8529
-6.66272
-6.66612
-6.67153
-6.67664
-6.68109
-6.68518
-6.68915
-6.69312
-6.6972
-6.70149
-6.70606
-6.71099
-6.71631
-6.72207
-6.72831
-6.73503
-6.74227
-6.75005
-6.75839
-6.76733
-6.77686
-6.78698
-6.79771
-6.80906
-6.82104
-6.83367
-6.84692
-6.8608
-6.87537
-6.89064
-6.90658
-6.92319
-6.94047
-6.95843
-6.97706
-6.99636
-7.01633
-7.03696
-7.05823
-7.08014
-7.10267
-7.12579
-7.14948
-7.17373
-7.19852
-7.22381
-7.24959
-7.27581
-7.30244
-7.32943
-7.35672
-7.38425
-7.41196
-7.43979
-7.46766
-7.49549
-7.5232
-7.5507
-7.57788
-7.60464
-7.63085
-7.6564
-7.68115
-7.70496
-7.7277
-7.74922
-7.76934
-7.78793
-7.8048
-7.81979
-7.83271
-7.84339
-7.85164
-7.85727
-7.86008
-7.85988
-7.85648
-7.84966
-7.83923
-7.82499
-7.80674
-7.78426
-7.75738
-7.72588
-7.68958
-7.64828
-7.60181
-7.54998
-7.49263
-7.42959
-7.36071
-7.28584
-7.20485
-7.11761
-7.024
-6.92392
-6.81728
-6.70401
-6.58402
-6.45728
-6.32375
-6.18339
-6.03619
-5.88217
-5.72131
-5.55365
-5.37924
-5.19812
-5.01035
-4.81603
-4.61523
-4.40807
-4.19466
-3.97515
-3.74967
-3.51839
-3.28147
-3.03909
-2.79145
-2.53875
-2.28122
-2.01909
-1.75259
-1.482
-1.20755
-0.929555
-0.648283
-0.364041
-0.0771071
0.212195
0.50355
0.79667
1.0913
1.38707
1.68362
1.98064
2.27784
2.5749
2.87149
3.16732
3.46207
3.75546
4.04719
4.33698
4.62456
4.90965
5.19201
5.4714
5.74757
6.0203
6.28938
6.55461
6.8158
7.07277
7.32537
7.57344
7.81684
8.05544
8.28912
8.51776
8.74124
8.95943
9.17227
9.37967
9.58157
9.77793
9.96868
10.1538
10.3332
10.5068
10.6747
10.8366
10.9925
11.142
11.285
11.4207
11.5495
11.6658
11.7866
11.8325
-6.67317
-6.67604
-6.68073
-6.68526
-6.6893
-6.69307
-6.69677
-6.7005
-6.70436
-6.70844
-6.71282
-6.71754
-6.72267
-6.72826
-6.73435
-6.74093
-6.74801
-6.75562
-6.7638
-6.7726
-6.78203
-6.79205
-6.80269
-6.81396
-6.82588
-6.83842
-6.85157
-6.86544
-6.88008
-6.89541
-6.91137
-6.928
-6.94533
-6.96336
-6.98207
-7.00147
-7.02154
-7.04227
-7.06366
-7.08568
-7.10832
-7.13157
-7.15541
-7.17981
-7.20477
-7.23026
-7.25624
-7.28265
-7.30947
-7.33664
-7.36409
-7.39177
-7.41961
-7.44754
-7.47551
-7.50342
-7.53119
-7.55873
-7.58592
-7.61266
-7.63884
-7.66432
-7.68897
-7.71266
-7.73525
-7.75658
-7.77651
-7.79486
-7.81147
-7.82618
-7.8388
-7.84916
-7.85707
-7.86233
-7.86477
-7.86418
-7.86037
-7.85314
-7.84228
-7.82761
-7.80891
-7.786
-7.75866
-7.72671
-7.68996
-7.64821
-7.60128
-7.549
-7.4912
-7.42772
-7.3584
-7.28311
-7.20171
-7.11406
-7.02006
-6.9196
-6.81261
-6.69899
-6.57869
-6.45165
-6.31785
-6.17724
-6.02983
-5.87561
-5.71459
-5.54681
-5.37229
-5.1911
-5.00329
-4.80896
-4.60819
-4.40108
-4.18776
-3.96836
-3.74302
-3.5119
-3.27516
-3.03299
-2.78558
-2.53313
-2.27587
-2.01402
-1.74783
-1.47755
-1.20344
-0.92579
-0.644882
-0.360993
-0.0744198
0.214502
0.505461
0.798219
1.09248
1.38783
1.68396
1.98058
2.27738
2.57403
2.87023
3.16567
3.46005
3.75306
4.04443
4.33386
4.62109
4.90585
5.18789
5.46697
5.74285
6.01531
6.28413
6.54912
6.81009
7.06686
7.31928
7.56718
7.81043
8.04889
8.28244
8.51097
8.73435
8.95247
9.16524
9.3726
9.57447
9.7708
9.96153
10.1466
10.326
10.4996
10.6673
10.829
10.9845
11.1336
11.2759
11.4107
11.5381
11.6527
11.7717
11.8148
-6.68348
-6.68582
-6.68976
-6.69366
-6.69718
-6.70051
-6.70382
-6.7072
-6.71074
-6.71452
-6.71861
-6.72306
-6.72791
-6.73323
-6.73908
-6.74538
-6.75209
-6.7594
-6.76755
-6.7764
-6.78574
-6.7956
-6.80609
-6.81724
-6.82907
-6.84157
-6.85477
-6.86871
-6.88337
-6.8987
-6.9147
-6.93139
-6.94878
-6.96686
-6.98564
-7.00511
-7.02527
-7.04609
-7.06756
-7.08968
-7.11243
-7.13581
-7.15979
-7.18436
-7.20947
-7.23509
-7.26117
-7.28767
-7.31455
-7.34175
-7.36921
-7.39686
-7.42466
-7.45252
-7.48039
-7.50818
-7.53581
-7.56317
-7.59017
-7.61668
-7.6426
-7.66779
-7.69213
-7.71549
-7.73771
-7.75865
-7.77817
-7.79609
-7.81226
-7.82651
-7.83866
-7.84853
-7.85594
-7.8607
-7.86263
-7.86153
-7.85721
-7.84946
-7.83809
-7.82291
-7.8037
-7.78027
-7.75243
-7.71999
-7.68274
-7.64051
-7.59311
-7.54037
-7.48211
-7.41819
-7.34845
-7.27275
-7.19095
-7.10293
-7.00856
-6.90777
-6.80046
-6.68655
-6.56598
-6.43871
-6.3047
-6.16392
-6.01637
-5.86204
-5.70095
-5.53312
-5.3586
-5.17743
-4.98969
-4.79545
-4.59481
-4.38786
-4.17473
-3.95555
-3.73046
-3.49961
-3.26318
-3.02133
-2.77427
-2.52218
-2.26531
-2.00386
-1.73809
-1.46824
-1.19459
-0.917413
-0.636967
-0.353537
-0.067453
0.220964
0.511427
0.803726
1.09748
1.3923
1.68791
1.98402
2.28031
2.57647
2.87217
3.16713
3.46103
3.75357
4.04448
4.33347
4.62027
4.90462
5.18626
5.46495
5.74047
6.01258
6.28108
6.54577
6.80646
7.06298
7.31515
7.56284
7.80589
8.04417
8.27756
8.50594
8.72919
8.94721
9.1599
9.36719
9.56901
9.76531
9.956
10.141
10.3204
10.4939
10.6614
10.8229
10.9781
11.1267
11.2683
11.4021
11.5283
11.6413
11.7584
11.7995
-6.69377
-6.69561
-6.69881
-6.70201
-6.70491
-6.70768
-6.71045
-6.71332
-6.71639
-6.71972
-6.72331
-6.72715
-6.73152
-6.73666
-6.74231
-6.74832
-6.75484
-6.762
-6.76991
-6.77851
-6.78773
-6.79757
-6.80804
-6.81913
-6.83089
-6.84334
-6.85649
-6.87036
-6.88497
-6.90027
-6.91628
-6.93298
-6.95039
-6.96848
-6.98726
-7.00673
-7.02689
-7.04773
-7.06924
-7.0914
-7.11419
-7.1376
-7.16159
-7.18613
-7.21118
-7.23671
-7.26266
-7.289
-7.31568
-7.34264
-7.36983
-7.39719
-7.42466
-7.45218
-7.47969
-7.5071
-7.53432
-7.56124
-7.58776
-7.61377
-7.63916
-7.66381
-7.68758
-7.71035
-7.73198
-7.75231
-7.77121
-7.78851
-7.80406
-7.81768
-7.8292
-7.83844
-7.84524
-7.84939
-7.85071
-7.84901
-7.8441
-7.83578
-7.82385
-7.80811
-7.78837
-7.76442
-7.73608
-7.70314
-7.66542
-7.62273
-7.57489
-7.52174
-7.46309
-7.3988
-7.3287
-7.25266
-7.17054
-7.08221
-6.98758
-6.88654
-6.77901
-6.66491
-6.54419
-6.4168
-6.2827
-6.14187
-5.9943
-5.84
-5.67896
-5.51123
-5.33684
-5.15585
-4.96831
-4.77432
-4.57395
-4.36731
-4.15453
-3.93573
-3.71105
-3.48063
-3.24466
-3.00329
-2.75673
-2.50518
-2.24885
-1.98797
-1.72278
-1.45354
-1.1805
-0.903922
-0.624082
-0.341284
-0.055851
0.231905
0.521759
0.813448
1.10653
1.40067
1.69562