/*--------------------------------*- C++ -*----------------------------------*\
  =========                 |
  \\      /  F ield         | OpenFOAM: The Open Source CFD Toolbox
   \\    /   O peration     | Website:  https://openfoam.org
    \\  /    A nd           | Version:  13
     \\/     M anipulation  |
\*---------------------------------------------------------------------------*/
FoamFile
{
    format      ascii;
    class       surfaceScalarField;
    location    "286";
    object      phi;
}
// * * * * * * * * * * * * * * * * * * * * * * * * * * * * * * * * * * * * * //

dimensions      [0 3 -1 0 0 0 0];

internalField   nonuniform List<scalar> 
24170
(
3.1097e-06
7.8701e-08
3.04078e-06
6.89273e-08
2.98059e-06
6.01905e-08
2.92523e-06
5.53555e-08
2.87374e-06
5.14888e-08
2.82611e-06
4.76316e-08
2.7824e-06
4.37078e-08
2.74238e-06
4.00194e-08
2.70583e-06
3.65541e-08
2.6726e-06
3.32269e-08
2.64255e-06
3.00488e-08
2.61551e-06
2.70358e-08
2.59137e-06
2.41375e-08
2.57001e-06
2.13605e-08
2.55141e-06
1.85976e-08
2.5356e-06
1.5804e-08
2.52402e-06
1.15769e-08
6.00848e-09
2.518e-06
3.42326e-06
7.26915e-08
3.4132e-06
7.89894e-08
3.40123e-06
7.21531e-08
3.3879e-06
6.86904e-08
3.37356e-06
6.58235e-08
3.35867e-06
6.25281e-08
3.34359e-06
5.87866e-08
3.32855e-06
5.50628e-08
3.31363e-06
5.14711e-08
3.29888e-06
4.79798e-08
3.28436e-06
4.45676e-08
3.27017e-06
4.12254e-08
3.25634e-06
3.79603e-08
3.243e-06
3.47027e-08
3.23021e-06
3.13846e-08
3.21825e-06
2.77568e-08
3.20697e-06
2.28533e-08
1.71922e-08
3.19577e-06
3.67547e-06
5.97382e-08
3.67805e-06
7.64113e-08
3.67679e-06
7.3407e-08
3.67439e-06
7.10956e-08
3.67093e-06
6.92837e-08
3.66667e-06
6.67846e-08
3.66187e-06
6.35897e-08
3.65666e-06
6.02744e-08
3.65113e-06
5.69976e-08
3.64536e-06
5.37466e-08
3.63942e-06
5.05049e-08
3.63339e-06
4.72608e-08
3.62731e-06
4.40349e-08
3.62125e-06
4.07627e-08
3.61529e-06
3.73411e-08
3.60952e-06
3.35277e-08
3.6035e-06
2.88656e-08
2.34104e-08
3.59728e-06
3.93728e-06
4.78495e-08
3.94368e-06
7.00132e-08
3.94682e-06
7.02595e-08
3.94806e-06
6.98543e-08
3.94831e-06
6.90335e-08
3.94804e-06
6.70545e-08
3.94735e-06
6.42811e-08
3.9463e-06
6.13245e-08
3.94495e-06
5.83523e-08
3.94337e-06
5.53298e-08
3.94162e-06
5.22542e-08
3.93976e-06
4.9117e-08
3.93786e-06
4.59308e-08
3.93594e-06
4.26793e-08
3.93403e-06
3.92523e-08
3.93208e-06
3.54692e-08
3.92983e-06
3.11125e-08
2.61302e-08
3.92711e-06
4.21727e-06
3.77096e-08
4.22463e-06
6.26484e-08
4.22929e-06
6.55986e-08
4.23244e-06
6.67018e-08
4.23469e-06
6.67879e-08
4.2364e-06
6.53468e-08
4.23765e-06
6.3032e-08
4.23849e-06
6.04851e-08
4.23908e-06
5.77585e-08
4.2395e-06
5.4905e-08
4.23979e-06
5.19621e-08
4.24e-06
4.89156e-08
4.24012e-06
4.58047e-08
4.24017e-06
4.26243e-08
4.24016e-06
3.92623e-08
4.24003e-06
3.56033e-08
4.23957e-06
3.15662e-08
2.71693e-08
4.23853e-06
4.51716e-06
2.9641e-08
4.52476e-06
5.50486e-08
4.53003e-06
6.03257e-08
4.53421e-06
6.25227e-08
4.53762e-06
6.33786e-08
4.54042e-06
6.25401e-08
4.54278e-06
6.06789e-08
4.54481e-06
5.84546e-08
4.54658e-06
5.59847e-08
4.54815e-06
5.33325e-08
4.54963e-06
5.04884e-08
4.55096e-06
4.7577e-08
4.55212e-06
4.46433e-08
4.5532e-06
4.15476e-08
4.55418e-06
3.82758e-08
4.55499e-06
3.47926e-08
4.55549e-06
3.10692e-08
2.71776e-08
4.55548e-06
4.83897e-06
2.33865e-08
4.84619e-06
4.78341e-08
4.8517e-06
5.48099e-08
4.85643e-06
5.78014e-08
4.86054e-06
5.92647e-08
4.86409e-06
5.89854e-08
4.8672e-06
5.75688e-08
4.87e-06
5.56579e-08
4.87254e-06
5.34404e-08
4.87489e-06
5.09892e-08
4.87704e-06
4.83318e-08
4.87906e-06
4.55593e-08
4.88097e-06
4.27333e-08
4.88274e-06
3.97702e-08
4.88437e-06
3.66529e-08
4.88579e-06
3.33709e-08
4.8869e-06
2.9955e-08
2.65757e-08
4.8875e-06
5.18439e-06
1.85758e-08
5.191e-06
4.12305e-08
5.19648e-06
4.93286e-08
5.2014e-06
5.28818e-08
5.2059e-06
5.47639e-08
5.20993e-06
5.49479e-08
5.21357e-06
5.39335e-08
5.21691e-06
5.23223e-08
5.22e-06
5.03502e-08
5.22288e-06
4.81054e-08
5.22557e-06
4.56425e-08
5.22809e-06
4.30348e-08
5.23048e-06
4.03397e-08
5.23272e-06
3.7528e-08
5.23478e-06
3.4593e-08
5.2366e-06
3.15522e-08
5.23809e-06
2.84638e-08
2.54513e-08
5.23921e-06
5.55503e-06
1.48814e-08
5.56096e-06
3.5303e-08
5.56628e-06
4.401e-08
5.5712e-06
4.79577e-08
5.57587e-06
5.00972e-08
5.58018e-06
5.06312e-08
5.58416e-06
4.99568e-08
5.58787e-06
4.86153e-08
5.59135e-06
4.68713e-08
5.59462e-06
4.48296e-08
5.59771e-06
4.2559e-08
5.60061e-06
4.0128e-08
5.60336e-06
3.75904e-08
5.60594e-06
3.49507e-08
5.60831e-06
3.22186e-08
5.61043e-06
2.94268e-08
5.61226e-06
2.66392e-08
2.39503e-08
5.61376e-06
5.95263e-06
1.203e-08
5.95788e-06
3.00469e-08
5.96298e-06
3.89096e-08
5.96783e-06
4.31119e-08
5.97253e-06
4.53921e-08
5.97699e-06
4.61725e-08
5.98118e-06
4.57746e-08
5.98512e-06
4.46672e-08
5.98887e-06
4.3128e-08
5.99242e-06
4.12779e-08
5.99578e-06
3.91934e-08
5.99897e-06
3.69425e-08
6.00198e-06
3.45785e-08
6.0048e-06
3.21257e-08
6.00741e-06
2.96074e-08
6.00978e-06
2.70626e-08
6.01186e-06
2.45508e-08
2.21456e-08
6.01367e-06
6.37904e-06
9.80461e-09
6.38366e-06
2.54244e-08
6.38852e-06
3.40504e-08
6.39326e-06
3.83674e-08
6.39795e-06
4.07069e-08
6.40247e-06
4.16469e-08
6.40678e-06
4.14676e-08
6.41089e-06
4.05626e-08
6.41481e-06
3.92075e-08
6.41855e-06
3.75364e-08
6.42211e-06
3.56314e-08
6.42549e-06
3.35603e-08
6.42869e-06
3.13783e-08
6.43169e-06
2.91203e-08
6.43448e-06
2.68187e-08
6.43703e-06
2.45135e-08
6.43932e-06
2.22547e-08
2.01051e-08
6.44136e-06
5.74237e-06
8.26853e-09
5.74581e-06
2.19806e-08
5.74973e-06
3.01344e-08
5.75366e-06
3.44325e-08
5.75759e-06
3.67802e-08
5.76144e-06
3.77994e-08
5.76515e-06
3.77614e-08
5.7687e-06
3.70062e-08
5.77211e-06
3.57955e-08
5.77538e-06
3.42688e-08
5.7785e-06
3.25116e-08
5.78146e-06
3.05937e-08
5.78427e-06
2.85686e-08
5.78691e-06
2.64791e-08
5.78937e-06
2.43592e-08
5.79164e-06
2.22495e-08
5.7937e-06
2.01918e-08
1.82401e-08
5.79556e-06
6.99962e-06
6.80746e-09
7.00314e-06
1.84591e-08
7.00737e-06
2.59025e-08
7.01176e-06
3.00402e-08
7.01622e-06
3.23241e-08
7.02064e-06
3.33766e-08
7.02494e-06
3.34583e-08
7.0291e-06
3.28515e-08
7.0331e-06
3.1794e-08
7.03694e-06
3.04269e-08
7.04061e-06
2.88388e-08
7.04411e-06
2.70963e-08
7.04742e-06
2.52564e-08
7.05054e-06
2.33609e-08
7.05345e-06
2.14483e-08
7.05614e-06
1.95547e-08
7.05862e-06
1.77143e-08
1.59746e-08
7.06089e-06
8.53223e-06
5.42295e-09
8.53576e-06
1.49271e-08
8.54026e-06
2.14015e-08
8.54511e-06
2.51986e-08
8.55011e-06
2.73241e-08
8.55514e-06
2.8344e-08
8.56009e-06
2.85069e-08
8.5649e-06
2.80371e-08
8.56956e-06
2.71385e-08
8.57404e-06
2.5947e-08
8.57833e-06
2.45488e-08
8.58241e-06
2.30096e-08
8.58629e-06
2.13825e-08
8.58994e-06
1.97109e-08
8.59336e-06
1.80307e-08
8.59654e-06
1.6375e-08
8.59948e-06
1.47706e-08
1.32576e-08
8.6022e-06
1.04005e-05
4.10473e-09
1.0404e-05
1.14277e-08
1.04088e-05
1.66793e-08
1.0414e-05
1.99211e-08
1.04196e-05
2.17669e-08
1.04253e-05
2.26712e-08
1.04309e-05
2.28575e-08
1.04365e-05
2.25e-08
1.04418e-05
2.17591e-08
1.0447e-05
2.07553e-08
1.0452e-05
1.95684e-08
1.04568e-05
1.8259e-08
1.04613e-05
1.68747e-08
1.04655e-05
1.54564e-08
1.04695e-05
1.40356e-08
1.04732e-05
1.26414e-08
1.04767e-05
1.12936e-08
1.00265e-08
1.048e-05
1.26781e-05
2.83095e-09
1.26815e-05
7.95117e-09
1.26865e-05
1.17606e-08
1.26922e-05
1.42125e-08
1.26983e-05
1.56291e-08
1.27047e-05
1.6318e-08
1.27111e-05
1.64567e-08
1.27174e-05
1.61709e-08
1.27236e-05
1.55767e-08
1.27296e-05
1.4767e-08
1.27353e-05
1.38097e-08
1.27408e-05
1.27542e-08
1.27461e-05
1.16419e-08
1.2751e-05
1.05055e-08
1.27557e-05
9.3725e-09
1.276e-05
8.26469e-09
1.27641e-05
7.1979e-09
6.19926e-09
1.2768e-05
1.54544e-05
1.56283e-09
1.5458e-05
4.4205e-09
1.54631e-05
6.59253e-09
1.54693e-05
8.02338e-09
1.54761e-05
8.84248e-09
1.54832e-05
9.20534e-09
1.54905e-05
9.21753e-09
1.54977e-05
8.95536e-09
1.55048e-05
8.48787e-09
1.55117e-05
7.87432e-09
1.55183e-05
7.16075e-09
1.55247e-05
6.38264e-09
1.55308e-05
5.56906e-09
1.55365e-05
4.74393e-09
1.5542e-05
3.92681e-09
1.55471e-05
3.13355e-09
1.55519e-05
2.37436e-09
1.67106e-09
1.55564e-05
1.8839e-05
2.30323e-10
1.88427e-05
6.45702e-10
1.88484e-05
9.60392e-10
1.88552e-05
1.15088e-09
1.88629e-05
1.20958e-09
1.88709e-05
1.14037e-09
1.88792e-05
9.56782e-10
1.88875e-05
6.77625e-10
1.88957e-05
3.22813e-10
1.89036e-05
-8.8811e-11
1.89113e-05
-5.39867e-10
1.89187e-05
-1.01458e-09
1.89258e-05
-1.49884e-09
1.89325e-05
-1.9803e-09
1.89389e-05
-2.44855e-09
1.89449e-05
-2.89465e-09
1.89506e-05
-3.31355e-09
-3.68928e-09
1.8956e-05
2.29649e-05
-1.32761e-09
2.29694e-05
-3.81475e-09
2.2976e-05
-5.69116e-09
2.29841e-05
-6.94833e-09
2.29931e-05
-7.76921e-09
2.30026e-05
-8.33606e-09
2.30123e-05
-8.74292e-09
2.3022e-05
-9.03717e-09
2.30316e-05
-9.25673e-09
2.30409e-05
-9.43111e-09
2.30499e-05
-9.57694e-09
2.30586e-05
-9.70199e-09
2.30669e-05
-9.80954e-09
2.30749e-05
-9.90066e-09
2.30824e-05
-9.97485e-09
2.30895e-05
-1.00306e-08
2.30963e-05
-1.00678e-08
-1.00768e-08
2.31027e-05
1.6812e-05
-2.66179e-09
1.68158e-05
-7.53739e-09
1.68211e-05
-1.10595e-08
1.68274e-05
-1.3268e-08
1.68343e-05
-1.46158e-08
1.68414e-05
-1.54592e-08
1.68486e-05
-1.59553e-08
1.68558e-05
-1.61963e-08
1.68628e-05
-1.62686e-08
1.68696e-05
-1.62357e-08
1.68762e-05
-1.6136e-08
1.68825e-05
-1.59914e-08
1.68885e-05
-1.5817e-08
1.68942e-05
-1.56216e-08
1.68996e-05
-1.54106e-08
1.69048e-05
-1.5186e-08
1.69097e-05
-1.49506e-08
-1.46982e-08
1.69143e-05
1.4636e-05
-4.14133e-09
1.46401e-05
-1.1552e-08
1.46455e-05
-1.65285e-08
1.46517e-05
-1.93886e-08
1.46581e-05
-2.10498e-08
1.46647e-05
-2.20289e-08
1.46712e-05
-2.25044e-08
1.46776e-05
-2.26158e-08
1.46839e-05
-2.24982e-08
1.46899e-05
-2.22412e-08
1.46956e-05
-2.18951e-08
1.47011e-05
-2.14927e-08
1.47064e-05
-2.10573e-08
1.47113e-05
-2.06037e-08
1.47161e-05
-2.01395e-08
1.47206e-05
-1.96687e-08
1.47248e-05
-1.91951e-08
-1.87158e-08
1.47288e-05
1.27419e-05
-5.95872e-09
1.27466e-05
-1.61821e-08
1.27523e-05
-2.22971e-08
1.27584e-05
-2.5447e-08
1.27646e-05
-2.72232e-08
1.27707e-05
-2.81981e-08
1.27768e-05
-2.85363e-08
1.27826e-05
-2.84429e-08
1.27882e-05
-2.8097e-08
1.27936e-05
-2.75977e-08
1.27987e-05
-2.69999e-08
1.28035e-05
-2.63444e-08
1.28081e-05
-2.5662e-08
1.28125e-05
-2.49703e-08
1.28166e-05
-2.42758e-08
1.28205e-05
-2.35826e-08
1.28242e-05
-2.28959e-08
-2.22147e-08
1.28277e-05
1.10934e-05
-8.39115e-09
1.10989e-05
-2.17108e-08
1.1105e-05
-2.84135e-08
1.1111e-05
-3.14783e-08
1.1117e-05
-3.32053e-08
1.11228e-05
-3.40275e-08
1.11284e-05
-3.41104e-08
1.11337e-05
-3.37482e-08
1.11388e-05
-3.31396e-08
1.11435e-05
-3.23762e-08
1.11481e-05
-3.15143e-08
1.11523e-05
-3.06023e-08
1.11563e-05
-2.96803e-08
1.11601e-05
-2.87637e-08
1.11637e-05
-2.78527e-08
1.11671e-05
-2.69501e-08
1.11702e-05
-2.60651e-08
-2.51961e-08
1.11732e-05
9.65869e-06
-1.18628e-08
9.6653e-06
-2.83265e-08
9.67169e-06
-3.48009e-08
9.67768e-06
-3.74702e-08
9.68347e-06
-3.89902e-08
9.68891e-06
-3.94719e-08
9.69398e-06
-3.91804e-08
9.69872e-06
-3.8492e-08
9.70316e-06
-3.75783e-08
9.70731e-06
-3.65201e-08
9.71116e-06
-3.537e-08
9.71475e-06
-3.41877e-08
9.7181e-06
-3.3029e-08
9.72123e-06
-3.18993e-08
9.72416e-06
-3.07835e-08
9.72689e-06
-2.96825e-08
9.72944e-06
-2.86168e-08
-2.75614e-08
9.73181e-06
8.41047e-06
-1.69846e-08
8.41816e-06
-3.60084e-08
8.42463e-06
-4.12794e-08
8.43047e-06
-4.3307e-08
8.43586e-06
-4.43838e-08
8.44068e-06
-4.42861e-08
8.445e-06
-4.35013e-08
8.44894e-06
-4.24319e-08
8.45253e-06
-4.11656e-08
8.45579e-06
-3.97873e-08
8.45876e-06
-3.83348e-08
8.46145e-06
-3.68832e-08
8.46392e-06
-3.5499e-08
8.46619e-06
-3.41611e-08
8.46825e-06
-3.28488e-08
8.47013e-06
-3.15654e-08
8.47185e-06
-3.03363e-08
-2.91732e-08
8.47346e-06
7.3248e-06
-2.45031e-08
7.33315e-06
-4.43598e-08
7.33936e-06
-4.74808e-08
7.34458e-06
-4.85363e-08
7.349e-06
-4.8803e-08
7.35266e-06
-4.79396e-08
7.35573e-06
-4.65783e-08
7.35839e-06
-4.50874e-08
7.36066e-06
-4.34367e-08
7.36264e-06
-4.17714e-08
7.36442e-06
-4.01138e-08
7.36596e-06
-3.84206e-08
7.36721e-06
-3.67486e-08
7.36822e-06
-3.51703e-08
7.36906e-06
-3.36935e-08
7.36978e-06
-3.22842e-08
7.37037e-06
-3.09277e-08
-2.96358e-08
7.37084e-06
6.38058e-06
-3.50203e-08
6.38852e-06
-5.22957e-08
6.39354e-06
-5.25019e-08
6.39707e-06
-5.20665e-08
6.3995e-06
-5.12342e-08
6.40125e-06
-4.96933e-08
6.40227e-06
-4.75942e-08
6.4028e-06
-4.5621e-08
6.40306e-06
-4.3688e-08
6.40305e-06
-4.17704e-08
6.40283e-06
-3.98931e-08
6.40245e-06
-3.8039e-08
6.40194e-06
-3.62369e-08
6.40129e-06
-3.45173e-08
6.40049e-06
-3.28967e-08
6.39956e-06
-3.13569e-08
6.39852e-06
-2.98884e-08
-2.84787e-08
6.39737e-06
5.55804e-06
-4.75919e-08
5.5635e-06
-5.7763e-08
5.56513e-06
-5.41312e-08
5.56463e-06
-5.15666e-08
5.56325e-06
-4.98495e-08
5.56124e-06
-4.76835e-08
5.55875e-06
-4.51055e-08
5.55584e-06
-4.27154e-08
5.55262e-06
-4.04667e-08
5.54917e-06
-3.83158e-08
5.54554e-06
-3.62657e-08
5.5418e-06
-3.43005e-08
5.538e-06
-3.24316e-08
5.53414e-06
-3.06642e-08
5.53025e-06
-2.90049e-08
5.52632e-06
-2.74278e-08
5.52238e-06
-2.59438e-08
-2.44774e-08
5.51838e-06
4.83671e-06
-5.66899e-08
4.83075e-06
-5.18099e-08
4.82247e-06
-4.58521e-08
4.81314e-06
-4.22307e-08
4.80276e-06
-3.94758e-08
4.7919e-06
-3.68223e-08
4.78095e-06
-3.41512e-08
4.76997e-06
-3.17361e-08
4.75905e-06
-2.95519e-08
4.74827e-06
-2.75357e-08
4.73767e-06
-2.56661e-08
4.72731e-06
-2.39396e-08
4.71721e-06
-2.23334e-08
4.70739e-06
-2.08409e-08
4.69784e-06
-1.94518e-08
4.68856e-06
-1.8148e-08
4.67953e-06
-1.69175e-08
-1.54756e-08
4.67053e-06
4.14599e-06
4.09418e-06
4.04832e-06
4.00609e-06
3.96662e-06
3.9298e-06
3.89564e-06
3.86391e-06
3.83436e-06
3.80682e-06
3.78115e-06
3.75721e-06
3.73488e-06
3.71404e-06
3.69459e-06
3.67644e-06
3.65952e-06
3.64405e-06
1.11617e-08
-1.11529e-08
2.23619e-08
-1.11776e-08
2.78446e-08
-5.47509e-09
2.65112e-08
1.35225e-09
1.93139e-08
7.19942e-09
7.8931e-09
1.14377e-08
-6.7611e-09
1.46508e-08
-2.35085e-08
1.6762e-08
-4.21379e-08
1.86232e-08
-6.30112e-08
2.0886e-08
-8.63811e-08
2.33627e-08
-1.12687e-07
2.63163e-08
-1.41767e-07
2.90728e-08
-1.72607e-07
3.08483e-08
-2.04456e-07
3.18412e-08
-2.36897e-07
3.24474e-08
-2.69772e-07
3.28664e-08
-3.02961e-07
3.31943e-08
-3.36444e-07
3.34729e-08
-3.70162e-07
3.37206e-08
-4.04113e-07
3.39417e-08
-4.38252e-07
3.41367e-08
-4.72567e-07
3.43029e-08
-5.07015e-07
3.44396e-08
-5.41574e-07
3.45472e-08
-5.7622e-07
3.46295e-08
-6.10925e-07
3.46937e-08
-6.45697e-07
3.47497e-08
-6.8052e-07
3.48125e-08
-7.15437e-07
3.48971e-08
-7.50474e-07
3.50323e-08
-7.85728e-07
3.52434e-08
-8.21292e-07
3.55647e-08
-8.57372e-07
3.60846e-08
-8.94067e-07
3.67004e-08
-9.31204e-07
3.71532e-08
-9.68493e-07
3.7296e-08
-1.00604e-06
3.75628e-08
-1.04379e-06
3.77525e-08
-1.08174e-06
3.7952e-08
-1.12036e-06
3.86108e-08
-1.15879e-06
3.84237e-08
-1.19671e-06
3.79165e-08
-1.23468e-06
3.79604e-08
-1.27258e-06
3.78875e-08
-1.31039e-06
3.77972e-08
-1.34809e-06
3.77018e-08
-1.38571e-06
3.76117e-08
-1.42324e-06
3.75258e-08
-1.46069e-06
3.74433e-08
-1.49806e-06
3.73608e-08
-1.53534e-06
3.72751e-08
-1.57253e-06
3.71831e-08
-1.60962e-06
3.70815e-08
-1.64659e-06
3.69679e-08
-1.68344e-06
3.68391e-08
-1.72013e-06
3.66931e-08
-1.75667e-06
3.65268e-08
-1.79301e-06
3.63387e-08
-1.82915e-06
3.61259e-08
-1.86504e-06
3.58869e-08
-1.90066e-06
3.56193e-08
-1.93599e-06
3.53214e-08
-1.97099e-06
3.49907e-08
-2.00562e-06
3.46255e-08
-2.03984e-06
3.42205e-08
-2.07362e-06
3.37682e-08
-2.10689e-06
3.32663e-08
-2.13963e-06
3.27376e-08
-2.17186e-06
3.22264e-08
-2.20362e-06
3.17517e-08
-2.23487e-06
3.12477e-08
-2.26549e-06
3.06171e-08
-2.29534e-06
2.98453e-08
-2.32435e-06
2.90054e-08
-2.35251e-06
2.81485e-08
-2.37981e-06
2.73011e-08
-2.40627e-06
2.6452e-08
-2.43183e-06
2.55533e-08
-2.45645e-06
2.46073e-08
-2.48007e-06
2.36184e-08
-2.50267e-06
2.25879e-08
-2.52419e-06
2.15182e-08
-2.54461e-06
2.04095e-08
-2.56387e-06
1.92639e-08
-2.58196e-06
1.80817e-08
-2.59883e-06
1.68649e-08
-2.61445e-06
1.56138e-08
-2.62878e-06
1.43304e-08
-2.6418e-06
1.30153e-08
-2.65347e-06
1.16698e-08
-2.66377e-06
1.0295e-08
-2.67268e-06
8.89248e-09
-2.68015e-06
7.46356e-09
-2.68617e-06
6.0096e-09
-2.69071e-06
4.53128e-09
-2.69375e-06
3.02948e-09
-2.69527e-06
1.50586e-09
-2.69526e-06
-2.09941e-11
-2.69366e-06
-1.60901e-09
-2.6905e-06
-3.17342e-09
-2.68578e-06
-4.72136e-09
-2.67948e-06
-6.31085e-09
-2.6716e-06
-7.89308e-09
-2.66212e-06
-9.49088e-09
-2.65104e-06
-1.10942e-08
-2.63836e-06
-1.27004e-08
-2.62406e-06
-1.43082e-08
-2.60816e-06
-1.59146e-08
-2.59065e-06
-1.75189e-08
-2.57155e-06
-1.9118e-08
-2.55085e-06
-2.07116e-08
-2.52856e-06
-2.22963e-08
-2.5047e-06
-2.3872e-08
-2.47928e-06
-2.54351e-08
-2.4523e-06
-2.69858e-08
-2.42379e-06
-2.85201e-08
-2.39376e-06
-3.00382e-08
-2.36222e-06
-3.15368e-08
-2.32921e-06
-3.30168e-08
-2.29474e-06
-3.44754e-08
-2.25884e-06
-3.59123e-08
-2.22154e-06
-3.73223e-08
-2.18285e-06
-3.87053e-08
-2.14281e-06
-4.0055e-08
-2.10145e-06
-4.13737e-08
-2.0588e-06
-4.26565e-08
-2.0149e-06
-4.39067e-08
-1.96977e-06
-4.51196e-08
-1.92347e-06
-4.62981e-08
-1.87601e-06
-4.74377e-08
-1.82746e-06
-4.85422e-08
-1.77783e-06
-4.96014e-08
-1.72719e-06
-5.06137e-08
-1.67557e-06
-5.15815e-08
-1.62302e-06
-5.25105e-08
-1.56958e-06
-5.33915e-08
-1.5153e-06
-5.42249e-08
-1.46023e-06
-5.50094e-08
-1.40443e-06
-5.57464e-08
-1.34793e-06
-5.64354e-08
-1.2908e-06
-5.70757e-08
-1.23309e-06
-5.76682e-08
-1.17483e-06
-5.82112e-08
-1.11609e-06
-5.87058e-08
-1.0569e-06
-5.91505e-08
-9.9733e-07
-5.95469e-08
-9.37414e-07
-5.98937e-08
-8.77205e-07
-6.01934e-08
-8.16749e-07
-6.04448e-08
-7.56095e-07
-6.06508e-08
-6.95285e-07
-6.08109e-08
-6.34365e-07
-6.09287e-08
-5.73374e-07
-6.1005e-08
-5.12346e-07
-6.10478e-08
-4.513e-07
-6.10714e-08
-3.90198e-07
-6.11327e-08
-3.28891e-07
-6.13416e-08
-2.67137e-07
-6.17936e-08
-2.05747e-07
-6.14337e-08
-1.45427e-07
-6.03666e-08
-8.55709e-08
-5.99066e-08
-2.59249e-08
-5.96985e-08
3.39392e-08
-5.99181e-08
9.29327e-08
-5.90474e-08
1.51183e-07
-5.83047e-08
2.09269e-07
-5.81395e-08
2.6685e-07
-5.76353e-08
3.2451e-07
-5.77141e-08
3.82125e-07
-5.76701e-08
4.39072e-07
-5.70016e-08
4.95304e-07
-5.62887e-08
5.50798e-07
-5.55496e-08
6.05422e-07
-5.46823e-08
6.58885e-07
-5.35197e-08
7.10562e-07
-5.17363e-08
7.59214e-07
-4.87088e-08
8.01744e-07
-4.2587e-08
8.31264e-07
-2.95713e-08
1.26858e-08
8.18536e-07
6.18121e-09
-1.73238e-08
4.17523e-09
-9.15414e-09
-3.09052e-09
1.79705e-09
-1.34696e-08
1.17408e-08
-2.65751e-08
2.03074e-08
-4.25677e-08
2.74377e-08
-6.11768e-08
3.32603e-08
-8.24276e-08
3.80192e-08
-1.05865e-07
4.20599e-08
-1.30783e-07
4.58102e-08
-1.56788e-07
4.93656e-08
-1.83188e-07
5.2721e-08
-2.09822e-07
5.57046e-08
-2.37086e-07
5.81164e-08
-2.65227e-07
5.9979e-08
-2.94211e-07
6.14338e-08
-3.23956e-07
6.26079e-08
-3.5435e-07
6.35903e-08
-3.85319e-07
6.44374e-08
-4.16783e-07
6.51847e-08
-4.487e-07
6.58534e-08
-4.81023e-07
6.64577e-08
-5.13733e-07
6.70075e-08
-5.46812e-07
6.75116e-08
-5.80252e-07
6.79799e-08
-6.14057e-07
6.84238e-08
-6.48229e-07
6.88574e-08
-6.82792e-07
6.9298e-08
-7.17759e-07
6.97707e-08
-7.53186e-07
7.03106e-08
-7.89108e-07
7.09496e-08
-8.2556e-07
7.16883e-08
-8.62496e-07
7.25003e-08
-8.99747e-07
7.33394e-08
-9.37108e-07
7.40661e-08
-9.74366e-07
7.44225e-08
-1.01153e-06
7.44639e-08
-1.04842e-06
7.44633e-08
-1.08523e-06
7.45703e-08
-1.1221e-06
7.48176e-08
-1.15864e-06
7.51521e-08
-1.19548e-06
7.52492e-08
-1.23218e-06
7.46181e-08
-1.26838e-06
7.41474e-08
-1.3043e-06
7.38039e-08
-1.34004e-06
7.35354e-08
-1.37566e-06
7.33139e-08
-1.41117e-06
7.31205e-08
-1.44659e-06
7.29422e-08
-1.48192e-06
7.27698e-08
-1.51716e-06
7.25954e-08
-1.5523e-06
7.24123e-08
-1.58734e-06
7.22142e-08
-1.62226e-06
7.19954e-08
-1.65704e-06
7.17507e-08
-1.69168e-06
7.14749e-08
-1.72616e-06
7.11635e-08
-1.76045e-06
7.08119e-08
-1.79453e-06
7.04158e-08
-1.82838e-06
6.99712e-08
-1.86197e-06
6.94743e-08
-1.89528e-06
6.89212e-08
-1.92827e-06
6.8308e-08
-1.96091e-06
6.76304e-08
-1.99317e-06
6.68845e-08
-2.02502e-06
6.60675e-08
-2.05643e-06
6.51748e-08
-2.08736e-06
6.41908e-08
-2.11772e-06
6.30888e-08
-2.14741e-06
6.19178e-08
-2.17648e-06
6.08128e-08
-2.20501e-06
5.9779e-08
-2.23302e-06
5.86191e-08
-2.26037e-06
5.7201e-08
-2.28697e-06
5.56007e-08
-2.31272e-06
5.38901e-08
-2.33758e-06
5.21586e-08
-2.36156e-06
5.04252e-08
-2.38462e-06
4.86119e-08
-2.40673e-06
4.67151e-08
-2.42786e-06
4.47371e-08
-2.44795e-06
4.26799e-08
-2.46698e-06
4.05458e-08
-2.48491e-06
3.83363e-08
-2.50171e-06
3.60537e-08
-2.51733e-06
3.37e-08
-2.53175e-06
3.12775e-08
-2.54492e-06
2.87885e-08
-2.55683e-06
2.62354e-08
-2.56744e-06
2.36205e-08
-2.57672e-06
2.0946e-08
-2.58464e-06
1.82147e-08
-2.59118e-06
1.54296e-08
-2.59632e-06
1.25937e-08
-2.60003e-06
9.70986e-09
-2.60228e-06
6.78085e-09
-2.60307e-06
3.8098e-09
-2.60237e-06
8.01338e-10
-2.60016e-06
-2.23976e-09
-2.59645e-06
-5.32402e-09
-2.59121e-06
-8.4231e-09
-2.5844e-06
-1.15397e-08
-2.57604e-06
-1.46823e-08
-2.5661e-06
-1.78403e-08
-2.55458e-06
-2.10141e-08
-2.54149e-06
-2.41979e-08
-2.52681e-06
-2.73875e-08
-2.51055e-06
-3.05789e-08
-2.4927e-06
-3.37684e-08
-2.47328e-06
-3.69523e-08
-2.45228e-06
-4.01271e-08
-2.42971e-06
-4.32892e-08
-2.40557e-06
-4.64352e-08
-2.37989e-06
-4.95616e-08
-2.35267e-06
-5.26647e-08
-2.32392e-06
-5.57412e-08
-2.29366e-06
-5.87873e-08
-2.2619e-06
-6.17993e-08
-2.22866e-06
-6.47743e-08
-2.19397e-06
-6.771e-08
-2.15785e-06
-7.06037e-08
-2.12032e-06
-7.34518e-08
-2.08141e-06
-7.62488e-08
-2.04114e-06
-7.89897e-08
-1.99954e-06
-8.16688e-08
-1.95663e-06
-8.42837e-08
-1.91246e-06
-8.68302e-08
-1.86706e-06
-8.9308e-08
-1.82047e-06
-9.17142e-08
-1.77271e-06
-9.4049e-08
-1.72383e-06
-9.63094e-08
-1.67387e-06
-9.84949e-08
-1.62286e-06
-1.00594e-07
-1.57086e-06
-1.026e-07
-1.5179e-06
-1.04519e-07
-1.46403e-06
-1.06356e-07
-1.4093e-06
-1.08099e-07
-1.35375e-06
-1.09747e-07
-1.29743e-06
-1.11297e-07
-1.24039e-06
-1.12751e-07
-1.18269e-06
-1.14108e-07
-1.12437e-06
-1.15369e-07
-1.06548e-06
-1.16532e-07
-1.00607e-06
-1.17597e-07
-9.4619e-07
-1.18564e-07
-8.85891e-07
-1.19433e-07
-8.25221e-07
-1.20203e-07
-7.64228e-07
-1.20877e-07
-7.0296e-07
-1.21454e-07
-6.41464e-07
-1.21937e-07
-5.79785e-07
-1.22328e-07
-5.17967e-07
-1.22631e-07
-4.56052e-07
-1.22849e-07
-3.94077e-07
-1.22989e-07
-3.32072e-07
-1.23063e-07
-2.70062e-07
-1.23096e-07
-2.08074e-07
-1.23137e-07
-1.46154e-07
-1.23281e-07
-8.44932e-08
-1.23474e-07
-2.31145e-08
-1.22836e-07
3.816e-08
-1.21665e-07
9.91658e-08
-1.20938e-07
1.59911e-07
-1.20469e-07
2.20131e-07
-1.20165e-07
2.80207e-07
-1.1915e-07
3.3982e-07
-1.17947e-07
3.98921e-07
-1.17268e-07
4.5775e-07
-1.16495e-07
5.16117e-07
-1.1611e-07
5.74077e-07
-1.1566e-07
6.31706e-07
-1.14663e-07
6.88846e-07
-1.13461e-07
7.45359e-07
-1.12096e-07
8.01069e-07
-1.10428e-07
8.5569e-07
-1.08176e-07
9.08709e-07
-1.04792e-07
9.59123e-07
-9.91594e-08
1.00528e-06
-8.87798e-08
1.04347e-06
-6.77954e-08
-1.84041e-08
1.07453e-06
-5.70594e-09
-1.16102e-08
-1.74818e-08
2.63282e-09
-3.1375e-08
1.5694e-08
-4.65933e-08
2.69645e-08
-6.31206e-08
3.68363e-08
-8.11092e-08
4.54309e-08
-1.00687e-07
5.28386e-08
-1.21868e-07
5.92054e-08
-1.44531e-07
6.47229e-08
-1.68309e-07
6.9592e-08
-1.92879e-07
7.39351e-08
-2.17954e-07
7.78002e-08
-2.43442e-07
8.11919e-08
-2.69434e-07
8.41104e-08
-2.96048e-07
8.65914e-08
-3.23315e-07
8.8703e-08
-3.51229e-07
9.05193e-08
-3.79742e-07
9.21048e-08
-4.08816e-07
9.35096e-08
-4.38403e-07
9.47716e-08
-4.68472e-07
9.59192e-08
-4.98989e-07
9.69747e-08
-5.29942e-07
9.79571e-08
-5.61317e-07
9.88835e-08
-5.93111e-07
9.97692e-08
-6.25323e-07
1.0063e-07
-6.57953e-07
1.01481e-07
-6.91005e-07
1.02341e-07
-7.24465e-07
1.03225e-07
-7.58304e-07
1.0414e-07
-7.92438e-07
1.05079e-07
-8.26767e-07
1.06013e-07
-8.61154e-07
1.06886e-07
-8.95426e-07
1.07615e-07
-9.29456e-07
1.08099e-07
-9.6328e-07
1.08254e-07
-9.97066e-07
1.08254e-07
-1.03075e-06
1.08149e-07
-1.06427e-06
1.08091e-07
-1.09754e-06
1.0809e-07
-1.13047e-06
1.0808e-07
-1.16315e-06
1.0793e-07
-1.19605e-06
1.07512e-07
-1.22899e-06
1.07084e-07
-1.26191e-06
1.06719e-07
-1.29479e-06
1.06411e-07
-1.32763e-06
1.06145e-07
-1.36041e-06
1.05904e-07
-1.39315e-06
1.05676e-07
-1.42583e-06
1.05448e-07
-1.45845e-06
1.05211e-07
-1.491e-06
1.04957e-07
-1.52346e-06
1.04676e-07
-1.55583e-06
1.04361e-07
-1.58809e-06
1.04006e-07
-1.62022e-06
1.03603e-07
-1.6522e-06
1.03145e-07
-1.68402e-06
1.02626e-07
-1.71564e-06
1.0204e-07
-1.74706e-06
1.01381e-07
-1.77823e-06
1.00644e-07
-1.80913e-06
9.98223e-08
-1.83974e-06
9.89116e-08
-1.87002e-06
9.7906e-08
-1.89994e-06
9.68009e-08
-1.92947e-06
9.55926e-08
-1.95857e-06
9.42763e-08
-1.98723e-06
9.28437e-08
-2.01543e-06
9.12956e-08
-2.04319e-06
8.96686e-08
-2.07038e-06
8.80023e-08
-2.09686e-06
8.62607e-08
-2.1226e-06
8.43515e-08
-2.14764e-06
8.22373e-08
-2.17199e-06
7.99545e-08
-2.19565e-06
7.75436e-08
-2.21854e-06
7.50482e-08
-2.24058e-06
7.24644e-08
-2.26174e-06
6.97681e-08
-2.28198e-06
6.69546e-08
-2.30127e-06
6.40242e-08
-2.31957e-06
6.09784e-08
-2.33685e-06
5.78194e-08
-2.35307e-06
5.45495e-08
-2.36819e-06
5.11715e-08
-2.38218e-06
4.76882e-08
-2.39501e-06
4.4103e-08
-2.40664e-06
4.0419e-08
-2.41704e-06
3.66399e-08
-2.42619e-06
3.27691e-08
-2.43406e-06
2.88102e-08
-2.44062e-06
2.47672e-08
-2.44583e-06
2.06444e-08
-2.44969e-06
1.64463e-08
-2.45216e-06
1.21772e-08
-2.45323e-06
7.84193e-09
-2.45287e-06
3.44519e-09
-2.45107e-06
-1.0074e-09
-2.4478e-06
-5.51181e-09
-2.44306e-06
-1.00645e-08
-2.43684e-06
-1.46538e-08
-2.42911e-06
-1.92774e-08
-2.41986e-06
-2.39325e-08
-2.40909e-06
-2.86128e-08
-2.3968e-06
-3.33137e-08
-2.38298e-06
-3.80287e-08
-2.36762e-06
-4.27523e-08
-2.35072e-06
-4.74785e-08
-2.3323e-06
-5.22022e-08
-2.31234e-06
-5.69177e-08
-2.29085e-06
-6.16201e-08
-2.26784e-06
-6.63038e-08
-2.24332e-06
-7.0964e-08
-2.21729e-06
-7.5595e-08
-2.18977e-06
-8.01923e-08
-2.16076e-06
-8.47501e-08
-2.13029e-06
-8.92632e-08
-2.09836e-06
-9.37262e-08
-2.06501e-06
-9.81348e-08
-2.03023e-06
-1.02485e-07
-1.99407e-06
-1.06772e-07
-1.95654e-06
-1.10991e-07
-1.91767e-06
-1.15134e-07
-1.87747e-06
-1.19195e-07
-1.83599e-06
-1.23165e-07
-1.79323e-06
-1.2704e-07
-1.74925e-06
-1.30816e-07
-1.70408e-06
-1.34488e-07
-1.65774e-06
-1.38054e-07
-1.61027e-06
-1.41513e-07
-1.56171e-06
-1.44862e-07
-1.51211e-06
-1.48096e-07
-1.46149e-06
-1.51205e-07
-1.4099e-06
-1.54179e-07
-1.35738e-06
-1.57024e-07
-1.30398e-06
-1.5974e-07
-1.24974e-06
-1.6232e-07
-1.19471e-06
-1.64757e-07
-1.13894e-06
-1.6705e-07
-1.08247e-06
-1.69199e-07
-1.02536e-06
-1.71204e-07
-9.67649e-07
-1.73063e-07
-9.09391e-07
-1.74777e-07
-8.50633e-07
-1.76344e-07
-7.91424e-07
-1.77765e-07
-7.31811e-07
-1.79038e-07
-6.71844e-07
-1.80165e-07
-6.11569e-07
-1.81148e-07
-5.51034e-07
-1.81987e-07
-4.90284e-07
-1.82685e-07
-4.29366e-07
-1.83247e-07
-3.68322e-07
-1.83677e-07
-3.07193e-07
-1.8398e-07
-2.46017e-07
-1.84168e-07
-1.8483e-07
-1.84255e-07
-1.23667e-07
-1.84264e-07
-6.25744e-08
-1.84235e-07
-1.64724e-09
-1.84214e-07
5.897e-08
-1.84098e-07
1.1946e-07
-1.83331e-07
1.79917e-07
-1.82128e-07
2.40118e-07
-1.81144e-07
2.99984e-07
-1.80341e-07
3.59403e-07
-1.7959e-07
4.18614e-07
-1.78366e-07
4.77608e-07
-1.76946e-07
5.36163e-07
-1.75828e-07
5.94395e-07
-1.74733e-07
6.52152e-07
-1.73873e-07
7.09435e-07
-1.72948e-07
7.66364e-07
-1.71598e-07
8.22854e-07
-1.69956e-07
8.78773e-07
-1.6802e-07
9.3395e-07
-1.65611e-07
9.88128e-07
-1.6236e-07
1.04089e-06
-1.57564e-07
1.09159e-06
-1.49861e-07
1.13935e-06
-1.36551e-07
1.18361e-06
-1.1206e-07
-6.34109e-08
1.22862e-06
-1.35096e-08
1.90561e-09
-3.08536e-08
1.99852e-08
-4.88654e-08
3.37083e-08
-6.71889e-08
4.52923e-08
-8.59245e-08
5.55732e-08
-1.05254e-07
6.47644e-08
-1.25353e-07
7.2938e-08
-1.46304e-07
8.01605e-08
-1.68107e-07
8.65261e-08
-1.90655e-07
9.21435e-08
-2.1383e-07
9.71103e-08
-2.37528e-07
1.01502e-07
-2.61711e-07
1.05374e-07
-2.86376e-07
1.08778e-07
-3.11555e-07
1.11769e-07
-3.37254e-07
1.14404e-07
-3.63478e-07
1.16742e-07
-3.90206e-07
1.18833e-07
-4.1742e-07
1.20722e-07
-4.45092e-07
1.22445e-07
-4.73203e-07
1.24029e-07
-5.01727e-07
1.25499e-07
-5.30646e-07
1.26875e-07
-5.59938e-07
1.28174e-07
-5.89583e-07
1.29412e-07
-6.1956e-07
1.30603e-07
-6.49839e-07
1.31756e-07
-6.80383e-07
1.32879e-07
-7.11134e-07
1.33972e-07
-7.42023e-07
1.35022e-07
-7.72954e-07
1.36007e-07
-8.03837e-07
1.36893e-07
-8.34586e-07
1.37635e-07
-8.65157e-07
1.38187e-07
-8.9557e-07
1.38514e-07
-9.2593e-07
1.38617e-07
-9.5626e-07
1.38586e-07
-9.86586e-07
1.38479e-07
-1.01686e-06
1.38361e-07
-1.04701e-06
1.38243e-07
-1.07703e-06
1.38096e-07
-1.10698e-06
1.37875e-07
-1.13703e-06
1.37564e-07
-1.16719e-06
1.37236e-07
-1.1974e-06
1.36929e-07
-1.22764e-06
1.3665e-07
-1.25789e-06
1.36395e-07
-1.28814e-06
1.36152e-07
-1.31838e-06
1.35911e-07
-1.34859e-06
1.3566e-07
-1.37877e-06
1.35389e-07
-1.40891e-06
1.35089e-07
-1.43898e-06
1.34749e-07
-1.46898e-06
1.34361e-07
-1.4989e-06
1.33915e-07
-1.5287e-06
1.33404e-07
-1.55838e-06
1.32819e-07
-1.5879e-06
1.32152e-07
-1.61726e-06
1.31396e-07
-1.64643e-06
1.30542e-07
-1.67537e-06
1.29585e-07
-1.70407e-06
1.28516e-07
-1.73249e-06
1.2733e-07
-1.7606e-06
1.26021e-07
-1.78839e-06
1.24583e-07
-1.81581e-06
1.23011e-07
-1.84284e-06
1.21302e-07
-1.86945e-06
1.19451e-07
-1.89561e-06
1.1746e-07
-1.92129e-06
1.15343e-07
-1.94639e-06
1.13106e-07
-1.97086e-06
1.10725e-07
-1.99467e-06
1.08162e-07
-2.01784e-06
1.05401e-07
-2.04034e-06
1.02458e-07
-2.06216e-06
9.93542e-08
-2.08322e-06
9.6107e-08
-2.10347e-06
9.27167e-08
-2.12288e-06
8.9176e-08
-2.14141e-06
8.54826e-08
-2.15902e-06
8.16367e-08
-2.17569e-06
7.764e-08
-2.19137e-06
7.34948e-08
-2.20602e-06
6.92041e-08
-2.21962e-06
6.47712e-08
-2.23214e-06
6.01998e-08
-2.24353e-06
5.54939e-08
-2.25377e-06
5.0658e-08
-2.26283e-06
4.56964e-08
-2.27067e-06
4.06141e-08
-2.27728e-06
3.54156e-08
-2.28262e-06
3.01063e-08
-2.28668e-06
2.46917e-08
-2.28941e-06
1.91777e-08
-2.29081e-06
1.35702e-08
-2.29085e-06
7.87544e-09
-2.2895e-06
2.09988e-09
-2.28677e-06
-3.74944e-09
-2.28262e-06
-9.66622e-09
-2.27704e-06
-1.56432e-08
-2.27003e-06
-2.16719e-08
-2.26156e-06
-2.7747e-08
-2.25164e-06
-3.38622e-08
-2.24024e-06
-4.00103e-08
-2.22738e-06
-4.61846e-08
-2.21303e-06
-5.23773e-08
-2.19721e-06
-5.85812e-08
-2.1799e-06
-6.47888e-08
-2.16112e-06
-7.09934e-08
-2.14085e-06
-7.71876e-08
-2.11911e-06
-8.33647e-08
-2.0959e-06
-8.95178e-08
-2.07123e-06
-9.56401e-08
-2.04511e-06
-1.01725e-07
-2.01754e-06
-1.07765e-07
-1.98854e-06
-1.13754e-07
-1.95812e-06
-1.19684e-07
-1.9263e-06