/*--------------------------------*- C++ -*----------------------------------*\
  =========                 |
  \\      /  F ield         | OpenFOAM: The Open Source CFD Toolbox
   \\    /   O peration     | Website:  https://openfoam.org
    \\  /    A nd           | Version:  13
     \\/     M anipulation  |
\*---------------------------------------------------------------------------*/
FoamFile
{
    format      ascii;
    class       volVectorField;
    location    "286";
    object      U;
}
// * * * * * * * * * * * * * * * * * * * * * * * * * * * * * * * * * * * * * //

dimensions      [0 1 -1 0 0 0 0];

internalField   nonuniform List<vector> 
12225
(
(9.81626 -0.00911292 0)
(9.64165 0.0111557 0)
(9.44852 0.024019 0)
(9.26131 0.0303138 0)
(9.09174 0.0328761 0)
(8.93634 0.0328378 0)
(8.79391 0.0317267 0)
(8.66234 0.0302256 0)
(8.54244 0.0285697 0)
(8.4327 0.0268044 0)
(8.33382 0.024975 0)
(8.24409 0.0231425 0)
(8.16399 0.0213091 0)
(8.09259 0.0194272 0)
(8.02986 0.0173979 0)
(7.97597 0.0154012 0)
(7.93119 0.011796 0)
(7.90599 0.0115667 0)
(10.0006 0.0579356 0)
(10.006 0.0613538 0)
(9.97727 0.0549753 0)
(9.93592 0.050203 0)
(9.89337 0.0473078 0)
(9.85086 0.0455338 0)
(9.8071 0.0437477 0)
(9.76291 0.0420673 0)
(9.71892 0.0405094 0)
(9.6755 0.0389579 0)
(9.63259 0.0373556 0)
(9.59053 0.035649 0)
(9.54954 0.0338656 0)
(9.50962 0.0319322 0)
(9.47145 0.0298038 0)
(9.43477 0.027167 0)
(9.40099 0.0227454 0)
(9.36695 0.0165307 0)
(10.0116 0.0426309 0)
(10.0427 0.0528066 0)
(10.0445 0.0500543 0)
(10.0373 0.049773 0)
(10.0279 0.0504022 0)
(10.0176 0.050544 0)
(10.0053 0.0501067 0)
(9.99161 0.0493769 0)
(9.97676 0.0484994 0)
(9.96138 0.0474721 0)
(9.9453 0.0462881 0)
(9.92896 0.0449531 0)
(9.91237 0.0434309 0)
(9.89576 0.0416406 0)
(9.87929 0.0394809 0)
(9.86311 0.0366941 0)
(9.84739 0.032373 0)
(9.82983 0.0257245 0)
(10.0107 0.0343641 0)
(10.0393 0.0471675 0)
(10.054 0.048827 0)
(10.0578 0.0503957 0)
(10.0581 0.051866 0)
(10.0582 0.0524008 0)
(10.0572 0.0521663 0)
(10.0549 0.0516905 0)
(10.0517 0.0510558 0)
(10.048 0.050305 0)
(10.0437 0.049396 0)
(10.0391 0.0482803 0)
(10.0342 0.0469881 0)
(10.0294 0.0454889 0)
(10.0245 0.043607 0)
(10.0196 0.0410262 0)
(10.0144 0.0372272 0)
(10.0077 0.0320843 0)
(10.0084 0.0262297 0)
(10.0325 0.0441679 0)
(10.0495 0.0466433 0)
(10.0577 0.0489398 0)
(10.063 0.0507277 0)
(10.0676 0.0514452 0)
(10.0714 0.0515062 0)
(10.0738 0.0513845 0)
(10.0753 0.0511064 0)
(10.0766 0.0505767 0)
(10.0774 0.049856 0)
(10.078 0.048902 0)
(10.0783 0.0476564 0)
(10.0785 0.0461489 0)
(10.0786 0.0442479 0)
(10.0784 0.0417272 0)
(10.0778 0.0383501 0)
(10.0759 0.0340274 0)
(10.0058 0.0210058 0)
(10.0253 0.0384101 0)
(10.0421 0.0432981 0)
(10.0522 0.0462848 0)
(10.0597 0.0485321 0)
(10.0665 0.0496815 0)
(10.0723 0.0500711 0)
(10.0771 0.0501322 0)
(10.0813 0.049929 0)
(10.085 0.0494973 0)
(10.0882 0.0487611 0)
(10.0916 0.0478332 0)
(10.0942 0.0467777 0)
(10.0966 0.0453908 0)
(10.0989 0.0435691 0)
(10.101 0.0412103 0)
(10.1025 0.038233 0)
(10.103 0.0345965 0)
(10.0041 0.0165754 0)
(10.0189 0.0335638 0)
(10.0344 0.0394105 0)
(10.045 0.0429505 0)
(10.0535 0.0456384 0)
(10.0613 0.0471395 0)
(10.0683 0.0477999 0)
(10.0744 0.0480547 0)
(10.0798 0.0480015 0)
(10.0849 0.047672 0)
(10.0895 0.047065 0)
(10.0938 0.0462001 0)
(10.0979 0.0451265 0)
(10.1017 0.0437395 0)
(10.1052 0.0419791 0)
(10.1084 0.0397674 0)
(10.1111 0.0370432 0)
(10.113 0.0340214 0)
(10.0029 0.013122 0)
(10.0141 0.0290359 0)
(10.0276 0.0355724 0)
(10.038 0.039458 0)
(10.0466 0.0423846 0)
(10.0547 0.0441451 0)
(10.0622 0.0450207 0)
(10.0689 0.0454239 0)
(10.0751 0.0454869 0)
(10.0808 0.0452434 0)
(10.0862 0.0446976 0)
(10.0912 0.0438993 0)
(10.096 0.0428759 0)
(10.1005 0.0415561 0)
(10.1046 0.0398975 0)
(10.1084 0.0378785 0)
(10.1116 0.0355303 0)
(10.1142 0.0329779 0)
(10.0021 0.0104744 0)
(10.0105 0.0249432 0)
(10.022 0.0318547 0)
(10.0318 0.0359263 0)
(10.0401 0.0389433 0)
(10.0481 0.0408689 0)
(10.0556 0.0419095 0)
(10.0625 0.0424264 0)
(10.069 0.0425743 0)
(10.075 0.0423979 0)
(10.0808 0.0419176 0)
(10.0862 0.0411721 0)
(10.0913 0.0401884 0)
(10.0961 0.0389326 0)
(10.1005 0.0373829 0)
(10.1046 0.0355427 0)
(10.1082 0.0334672 0)
(10.1112 0.0312762 0)
(10.0015 0.00844243 0)
(10.0079 0.0213013 0)
(10.0176 0.0282795 0)
(10.0265 0.0324284 0)
(10.0344 0.0354413 0)
(10.042 0.0374456 0)
(10.0493 0.0385915 0)
(10.0561 0.039182 0)
(10.0626 0.0393844 0)
(10.0687 0.0392557 0)
(10.0745 0.0388262 0)
(10.08 0.0381299 0)
(10.0852 0.0371924 0)
(10.0901 0.0360067 0)
(10.0947 0.0345704 0)
(10.0989 0.0329043 0)
(10.1027 0.0310674 0)
(10.106 0.0291574 0)
(10.0011 0.00686743 0)
(10.006 0.0180996 0)
(10.0141 0.0248751 0)
(10.0222 0.0290027 0)
(10.0295 0.0319456 0)
(10.0367 0.0339556 0)
(10.0436 0.0351521 0)
(10.0502 0.0357812 0)
(10.0565 0.0360112 0)
(10.0625 0.0359102 0)
(10.0682 0.0355147 0)
(10.0737 0.0348585 0)
(10.0789 0.0339689 0)
(10.0837 0.0328555 0)
(10.0883 0.0315304 0)
(10.0925 0.030023 0)
(10.0963 0.0283874 0)
(10.0997 0.026704 0)
(10.0008 0.00569045 0)
(10.0047 0.015496 0)
(10.0116 0.0219058 0)
(10.0189 0.0259285 0)
(10.0258 0.0287635 0)
(10.0325 0.0307276 0)
(10.0391 0.031929 0)
(10.0454 0.0325678 0)
(10.0515 0.0328047 0)
(10.0573 0.0327154 0)
(10.0629 0.0323405 0)
(10.0682 0.0317155 0)
(10.0732 0.0308693 0)
(10.078 0.0298221 0)
(10.0824 0.0285938 0)
(10.0866 0.027217 0)
(10.0903 0.0257374 0)
(10.0938 0.0242253 0)
(10.0007 0.00473019 0)
(10.0038 0.0131858 0)
(10.0096 0.0190878 0)
(10.0162 0.0229291 0)
(10.0226 0.0256249 0)
(10.0289 0.0275065 0)
(10.0352 0.0286819 0)
(10.0412 0.0293132 0)
(10.0471 0.0295463 0)
(10.0527 0.0294608 0)
(10.058 0.0291016 0)
(10.0632 0.0285047 0)
(10.068 0.0277018 0)
(10.0726 0.0267182 0)
(10.077 0.0255793 0)
(10.081 0.0243178 0)
(10.0847 0.0229725 0)
(10.0881 0.0216049 0)
(10.0005 0.00384088 0)
(10.003 0.0108709 0)
(10.0079 0.0160772 0)
(10.0137 0.0196091 0)
(10.0196 0.022089 0)
(10.0255 0.0238255 0)
(10.0313 0.02493 0)
(10.0371 0.0255277 0)
(10.0426 0.0257424 0)
(10.048 0.0256527 0)
(10.0531 0.0253064 0)
(10.0581 0.0247397 0)
(10.0627 0.023986 0)
(10.0671 0.0230731 0)
(10.0713 0.0220292 0)
(10.0752 0.0208852 0)
(10.0788 0.0196725 0)
(10.0821 0.018445 0)
(10.0004 0.00299952 0)
(10.0024 0.00856985 0)
(10.0064 0.0129084 0)
(10.0115 0.0159773 0)
(10.0168 0.0181439 0)
(10.0223 0.01966 0)
(10.0277 0.0206337 0)
(10.0331 0.0211593 0)
(10.0384 0.0213333 0)
(10.0435 0.021228 0)
(10.0484 0.0208897 0)
(10.053 0.0203551 0)
(10.0575 0.0196552 0)
(10.0617 0.0188198 0)
(10.0657 0.0178753 0)
(10.0694 0.0168504 0)
(10.0729 0.0157692 0)
(10.0761 0.0146782 0)
(10.0003 0.00218901 0)
(10.0019 0.00628978 0)
(10.0053 0.00960933 0)
(10.0096 0.0120455 0)
(10.0144 0.0137797 0)
(10.0194 0.0149858 0)
(10.0244 0.0157544 0)
(10.0295 0.016154 0)
(10.0344 0.0162543 0)
(10.0393 0.0161134 0)
(10.0439 0.0157734 0)
(10.0483 0.0152669 0)
(10.0526 0.0146224 0)
(10.0566 0.0138667 0)
(10.0604 0.0130237 0)
(10.064 0.0121172 0)
(10.0673 0.0111662 0)
(10.0704 0.010209 0)
(10.0003 0.0013899 0)
(10.0016 0.00400358 0)
(10.0044 0.00617316 0)
(10.0082 0.00780675 0)
(10.0125 0.00897321 0)
(10.0171 0.0097662 0)
(10.0217 0.0102452 0)
(10.0264 0.0104539 0)
(10.0311 0.0104362 0)
(10.0356 0.0102318 0)
(10.04 0.00987294 0)
(10.0442 0.00938485 0)
(10.0482 0.00879109 0)
(10.0521 0.00811226 0)
(10.0557 0.00736828 0)
(10.0591 0.00657699 0)
(10.0624 0.0057526 0)
(10.0654 0.0049262 0)
(10.0002 0.000567608 0)
(10.0014 0.00162934 0)
(10.0039 0.00251778 0)
(10.0073 0.0031845 0)
(10.0112 0.00363794 0)
(10.0155 0.00390267 0)
(10.0198 0.00399828 0)
(10.0242 0.00394185 0)
(10.0286 0.00375206 0)
(10.0329 0.00344751 0)
(10.0371 0.00304498 0)
(10.0411 0.00255964 0)
(10.0449 0.00200582 0)
(10.0486 0.00139723 0)
(10.0521 0.000746713 0)
(10.0554 6.66461e-05 0)
(10.0585 -0.000634256 0)
(10.0614 -0.00133118 0)
(10.0002 -0.000349118 0)
(10.0013 -0.0010176 0)
(10.0037 -0.00157881 0)
(10.0071 -0.00203035 0)
(10.0109 -0.00241518 0)
(10.0149 -0.00277884 0)
(10.0191 -0.00314654 0)
(10.0234 -0.00353054 0)
(10.0276 -0.00393906 0)
(10.0317 -0.00437782 0)
(10.0357 -0.00484846 0)
(10.0396 -0.00534958 0)
(10.0433 -0.0058776 0)
(10.0468 -0.00642802 0)
(10.0502 -0.00699553 0)
(10.0534 -0.0075743 0)
(10.0564 -0.00816059 0)
(10.0593 -0.00873706 0)
(10.0003 -0.00126684 0)
(10.0015 -0.00365351 0)
(10.0042 -0.00560626 0)
(10.0079 -0.0070839 0)
(10.0119 -0.00821551 0)
(10.0161 -0.00913047 0)
(10.0204 -0.00989679 0)
(10.0246 -0.0105542 0)
(10.0289 -0.0111391 0)
(10.033 -0.0116811 0)
(10.037 -0.0121995 0)
(10.0408 -0.0127052 0)
(10.0445 -0.0132049 0)
(10.048 -0.0137018 0)
(10.0513 -0.0141973 0)
(10.0544 -0.0146904 0)
(10.0574 -0.0151815 0)
(10.0602 -0.015659 0)
(10.0003 -0.0021576 0)
(10.0019 -0.00615315 0)
(10.0052 -0.0092683 0)
(10.0094 -0.0114961 0)
(10.0138 -0.0131387 0)
(10.0183 -0.0144208 0)
(10.0227 -0.015437 0)
(10.0272 -0.0162504 0)
(10.0315 -0.0169253 0)
(10.0357 -0.017511 0)
(10.0397 -0.0180383 0)
(10.0436 -0.0185264 0)
(10.0473 -0.0189892 0)
(10.0508 -0.019435 0)
(10.0541 -0.019869 0)
(10.0572 -0.0202928 0)
(10.0602 -0.0207087 0)
(10.063 -0.0211091 0)
(10.0005 -0.00319551 0)
(10.0026 -0.00892785 0)
(10.0069 -0.0130627 0)
(10.0118 -0.0158223 0)
(10.0168 -0.0178126 0)
(10.0216 -0.0193396 0)
(10.0264 -0.0205011 0)
(10.031 -0.021388 0)
(10.0355 -0.0220939 0)
(10.0398 -0.0226823 0)
(10.0439 -0.0231894 0)
(10.0479 -0.0236412 0)
(10.0516 -0.0240569 0)
(10.0551 -0.0244489 0)
(10.0584 -0.0248223 0)
(10.0616 -0.0251806 0)
(10.0646 -0.0255278 0)
(10.0674 -0.0258601 0)
(10.0007 -0.00452109 0)
(10.0039 -0.0121745 0)
(10.0095 -0.0170958 0)
(10.0154 -0.0201422 0)
(10.0209 -0.0223359 0)
(10.0261 -0.0239907 0)
(10.0313 -0.0251937 0)
(10.0362 -0.0260794 0)
(10.0409 -0.0267657 0)
(10.0453 -0.0273183 0)
(10.0495 -0.027775 0)
(10.0535 -0.0281675 0)
(10.0572 -0.0285229 0)
(10.0607 -0.0288543 0)
(10.064 -0.0291644 0)
(10.0672 -0.0294549 0)
(10.0701 -0.0297311 0)
(10.0729 -0.0299905 0)
(10.0011 -0.0063481 0)
(10.0059 -0.0160527 0)
(10.0134 -0.021371 0)
(10.0204 -0.0244555 0)
(10.0264 -0.0267297 0)
(10.0321 -0.02839 0)
(10.0375 -0.0295291 0)
(10.0426 -0.0303455 0)
(10.0474 -0.0309637 0)
(10.0518 -0.0314402 0)
(10.056 -0.0318091 0)
(10.0598 -0.0321107 0)
(10.0634 -0.0323813 0)
(10.0668 -0.0326313 0)
(10.0699 -0.0328608 0)
(10.0728 -0.0330719 0)
(10.0756 -0.0332748 0)
(10.0781 -0.0334637 0)
(10.0019 -0.00899218 0)
(10.0093 -0.020655 0)
(10.019 -0.0258311 0)
(10.0269 -0.0287341 0)
(10.0333 -0.0309457 0)
(10.0392 -0.0324669 0)
(10.0446 -0.0334352 0)
(10.0496 -0.0341053 0)
(10.0541 -0.034589 0)
(10.0581 -0.0349401 0)
(10.0618 -0.035188 0)
(10.0652 -0.0353748 0)
(10.0683 -0.0355437 0)
(10.0711 -0.0356867 0)
(10.0736 -0.0357884 0)
(10.076 -0.0358636 0)
(10.0781 -0.0359467 0)
(10.08 -0.0360028 0)
(10.0032 -0.0128454 0)
(10.0145 -0.025959 0)
(10.0265 -0.0303708 0)
(10.0346 -0.0328786 0)
(10.0406 -0.0347598 0)
(10.0459 -0.0359144 0)
(10.0506 -0.0365871 0)
(10.0545 -0.0370094 0)
(10.0578 -0.0372617 0)
(10.0607 -0.0374078 0)
(10.0632 -0.0374318 0)
(10.0656 -0.0373733 0)
(10.0675 -0.0373567 0)
(10.069 -0.0374157 0)
(10.0702 -0.0374922 0)
(10.0713 -0.0375249 0)
(10.0722 -0.0375341 0)
(10.0729 -0.0375685 0)
(10.0054 -0.0180492 0)
(10.0215 -0.0316541 0)
(10.0345 -0.0344887 0)
(10.0408 -0.036376 0)
(10.0444 -0.0377998 0)
(10.0478 -0.0382013 0)
(10.05 -0.0383471 0)
(10.0511 -0.0385783 0)
(10.0517 -0.0386437 0)
(10.0519 -0.0386175 0)
(10.0517 -0.0385695 0)
(10.0512 -0.0384496 0)
(10.0505 -0.0382424 0)
(10.0496 -0.0379933 0)
(10.0484 -0.0377688 0)
(10.0471 -0.0375861 0)
(10.0455 -0.0374215 0)
(10.0438 -0.0372767 0)
(10.0076 -0.0272306 0)
(10.0269 -0.0362129 0)
(10.0378 -0.035848 0)
(10.036 -0.0364712 0)
(10.0335 -0.0376805 0)
(10.0304 -0.038413 0)
(10.0265 -0.0383258 0)
(10.0216 -0.0381661 0)
(10.016 -0.0379838 0)
(10.01 -0.0377502 0)
(10.0035 -0.0374687 0)
(9.99688 -0.0371331 0)
(9.99006 -0.036764 0)
(9.98314 -0.0363945 0)
(9.97616 -0.0360433 0)
(9.9691 -0.0356903 0)
(9.962 -0.0353254 0)
(9.95488 -0.0349225 0)
(10.0044 -0.0367377 0)
(10.0135 -0.044477 0)
(10.0023 -0.0406813 0)
(9.98144 -0.0372863 0)
(9.95949 -0.0354308 0)
(9.93747 -0.0342444 0)
(9.91499 -0.0331346 0)
(9.89224 -0.0322252 0)
(9.86947 -0.0314797 0)
(9.84698 -0.0308217 0)
(9.8248 -0.0302117 0)
(9.80307 -0.0296175 0)
(9.78187 -0.0290496 0)
(9.76122 -0.028503 0)
(9.74115 -0.0279808 0)
(9.72162 -0.027452 0)
(9.70269 -0.0269377 0)
(9.68399 -0.0262001 0)
(9.89559 -0.00402465 0)
(9.80088 -0.0164867 0)
(9.69149 -0.0232842 0)
(9.58312 -0.0264876 0)
(9.48416 -0.0273715 0)
(9.39355 -0.0271202 0)
(9.30946 -0.026367 0)
(9.23113 -0.025444 0)
(9.15826 -0.0244754 0)
(9.09035 -0.0234915 0)
(9.02711 -0.0225198 0)
(8.96814 -0.0215862 0)
(8.91309 -0.0206944 0)
(8.86178 -0.0198474 0)
(8.81384 -0.019038 0)
(8.76915 -0.0182597 0)
(8.72746 -0.0175287 0)
(8.68792 -0.0165687 0)
(0.00575637 -0.0131218 -8.24735e-19)
(0.0154125 -0.0181798 7.61612e-19)
(0.0235204 -0.0130733 0)
(0.0253358 -0.00349874 0)
(0.0215334 0.00507468 0)
(0.0128846 0.0104578 -4.34407e-19)
(0.00116985 0.0142482 0)
(-0.0130583 0.0152712 0)
(-0.0288638 0.0164962 0)
(-0.0462898 0.0195701 0)
(-0.0658623 0.0236584 1.89901e-19)
(-0.088031 0.0298106 0)
(-0.112915 0.035807 0)
(-0.13989 0.0391237 0)
(-0.168036 0.0404493 0)
(-0.196843 0.0409499 1.03236e-19)
(-0.226107 0.0411182 0)
(-0.255723 0.04115 0)
(-0.285636 0.0411151 0)
(-0.315814 0.041034 0)
(-0.346234 0.0409034 0)
(-0.376873 0.040715 0)
(-0.407708 0.0404584 0)
(-0.438715 0.040127 6.30642e-20)
(-0.469864 0.039717 -6.06776e-20)
(-0.501134 0.0392289 5.86022e-20)
(-0.532501 0.0386691 5.67953e-20)
(-0.563956 0.0380506 0)
(-0.595505 0.0373999 0)
(-0.627168 0.0367592 -5.26651e-20)
(-0.658951 0.0362103 -5.16491e-20)
(-0.690909 0.0358279 0)
(-0.723187 0.0357151 0)
(-0.755828 0.0360751 -4.92163e-20)
(-0.788947 0.0363924 0)
(-0.822748 0.0366252 0)
(-0.856819 0.0371061 4.59242e-20)
(-0.891192 0.0379684 0)
(-0.925868 0.0384949 4.34738e-20)
(-0.960644 0.0385366 8.51852e-20)
(-0.994428 0.0383282 0)
(-1.03031 0.0340607 0)
(-1.06731 0.0307809 0)
(-1.10131 0.0305257 0)
(-1.1363 0.0302296 0)
(-1.17133 0.0299643 1.02595e-19)
(-1.20632 0.0296992 1.00317e-19)
(-1.24127 0.0294435 9.81584e-20)
(-1.2762 0.0291936 0)
(-1.3111 0.0289505 -9.41643e-20)
(-1.34598 0.0287109 0)
(-1.38083 0.0284727 9.05451e-20)
(-1.41565 0.0282336 8.88588e-20)
(-1.45045 0.0279911 0)
(-1.48519 0.0277434 0)
(-1.51989 0.0274885 0)
(-1.55451 0.0272249 8.28068e-20)
(-1.58904 0.0269509 0)
(-1.62347 0.0266655 0)
(-1.65778 0.0263673 0)
(-1.69193 0.0260559 0)
(-1.72591 0.0257303 0)
(-1.75968 0.0253909 0)
(-1.79323 0.0250379 0)
(-1.82652 0.0246736 0)
(-1.85951 0.0243007 -7.21616e-20)
(-1.89217 0.0239228 0)
(-1.92443 0.023536 0)
(-1.95628 0.0231159 6.92448e-20)
(-1.98771 0.0226191 6.83252e-20)
(-2.01876 0.0220303 0)
(-2.04943 0.0214008 -6.65389e-20)
(-2.07963 0.0208004 6.56658e-20)
(-2.10923 0.0202454 0)
(-2.13814 0.0197139 -6.39674e-20)
(-2.16632 0.0191784 0)
(-2.19376 0.0186054 0)
(-2.22049 0.0179991 6.15191e-20)
(-2.24646 0.0173648 0)
(-2.27164 0.0167085 -5.99234e-20)
(-2.29596 0.0160332 0)
(-2.31941 0.0153404 5.8342e-20)
(-2.34192 0.0146316 5.75528e-20)
(-2.36348 0.0139074 5.67625e-20)
(-2.38404 0.0131692 1.11939e-19)
(-2.40356 0.0124174 -1.10346e-19)
(-2.42201 0.0116532 0)
(-2.43935 0.010877 0)
(-2.45555 0.01009 0)
(-2.47057 0.0092926 -1.03833e-19)
(-2.4844 0.00848569 -1.02156e-19)
(-2.49699 0.00766969 1.00454e-19)
(-2.50832 0.00684526 0)
(-2.51836 0.00601231 -9.69671e-20)
(-2.52707 0.00517037 -9.51763e-20)
(-2.53444 0.00431776 -9.3351e-20)
(-2.54044 0.00345309 0)
(-2.54504 0.00257891 0)
(-2.54822 0.00172094 0)
(-2.54995 0.000735591 -8.56314e-20)
(-2.55021 -0.000173961 0)
(-2.54902 -0.00100064 0)
(-2.54636 -0.00188971 7.92887e-20)
(-2.5422 -0.00271912 0)
(-2.53655 -0.00355683 0)
(-2.52938 -0.00438921 7.24647e-20)
(-2.52068 -0.00521666 0)
(-2.51045 -0.00603839 0)
(-2.49869 -0.00685357 -6.50983e-20)
(-2.48539 -0.00766187 -6.25111e-20)
(-2.47055 -0.00846245 0)
(-2.45416 -0.00925518 5.71244e-20)
(-2.43624 -0.0100391 0)
(-2.41678 -0.0108143 -5.14366e-20)
(-2.39578 -0.0115797 0)
(-2.37326 -0.0123356 -4.54249e-20)
(-2.34922 -0.0130808 -4.22899e-20)
(-2.32368 -0.0138157 0)
(-2.29663 -0.0145395 0)
(-2.26811 -0.0152528 0)
(-2.23811 -0.015955 0)
(-2.20667 -0.0166459 0)
(-2.1738 -0.0173235 0)
(-2.13951 -0.0179878 0)
(-2.10383 -0.0186371 -1.36321e-20)
(-2.06678 -0.0192728 9.53922e-21)
(-2.02838 -0.0198936 0)
(-1.98867 -0.0205016 0)
(-1.94766 -0.0210955 0)
(-1.9054 -0.0216773 0)
(-1.8619 -0.0222452 -2.60009e-20)
(-1.8172 -0.0227996 0)
(-1.77134 -0.0233365 4.62275e-20)
(-1.72435 -0.0238593 -5.68768e-20)
(-1.67627 -0.0243703 0)
(-1.62714 -0.02487 0)
(-1.57699 -0.025354 0)
(-1.52587 -0.0258251 1.03495e-19)
(-1.47381 -0.0262831 1.16274e-19)
(-1.42087 -0.0267296 0)
(-1.36709 -0.0271652 1.43371e-19)
(-1.31251 -0.0275905 1.57754e-19)
(-1.25718 -0.0280065 -1.72739e-19)
(-1.20114 -0.0284135 0)
(-1.14444 -0.0288128 0)
(-1.08712 -0.0292048 -2.21744e-19)
(-1.02922 -0.0295915 0)
(-0.970802 -0.0299739 0)
(-0.911895 -0.0303544 0)
(-0.852547 -0.030735 0)
(-0.792803 -0.031119 3.20147e-19)
(-0.732703 -0.0315101 3.42962e-19)
(-0.672291 -0.0319144 0)
(-0.611605 -0.0323412 3.92462e-19)
(-0.550678 -0.0328091 0)
(-0.489521 -0.0333507 0)
(-0.42813 -0.0340182 4.78293e-19)
(-0.366496 -0.0348413 0)
(-0.304595 -0.0359441 5.45222e-19)
(-0.241352 -0.0362089 0)
(-0.179565 -0.0352644 0)
(-0.118393 -0.035059 6.65524e-19)
(-0.0572183 -0.0353576 0)
(0.00421829 -0.03596 7.39028e-19)
(0.0660235 -0.0338711 0)
(0.126057 -0.0327691 0)
(0.18684 -0.032467 0)
(0.247111 -0.0318008 -6.80157e-19)
(0.307254 -0.0320594 0)
(0.368213 -0.0319277 6.50954e-19)
(0.428602 -0.0308455 0)
(0.488542 -0.0297153 0)
(0.548004 -0.0286628 0)
(0.606871 -0.0276364 0)
(0.664953 -0.0265141 0)
(0.721734 -0.0251698 0)
(0.776598 -0.0233215 0)
(0.826016 -0.0203211 -1.1433e-18)
(0.871658 -0.0138927 0)
(0.869865 0.00322488 0)
(0.00421234 -0.0311557 1.9846e-18)
(0.00546329 -0.0239505 -1.20682e-18)
(0.00101543 -0.00683826 0)
(-0.00665639 0.009682 3.82199e-19)
(-0.0170146 0.0235698 0)
(-0.0300247 0.0345166 1.43013e-19)
(-0.0455142 0.04285 -2.57511e-19)
(-0.0633225 0.0492063 -2.32807e-19)
(-0.0833944 0.0542643 0)
(-0.105024 0.0590432 -1.91582e-19)
(-0.127826 0.0636572 -8.75293e-20)
(-0.151292 0.0680313 0)
(-0.174955 0.0718002 0)
(-0.199018 0.074535 0)
(-0.223811 0.076295 0)
(-0.249414 0.0773868 -6.01577e-20)
(-0.275764 0.0780635 0)
(-0.30277 0.0784857 1.07113e-19)
(-0.330347 0.0787441 0)
(-0.358426 0.0788894 0)
(-0.386955 0.0789468 -9.31896e-20)
(-0.415896 0.0789304 0)
(-0.44522 0.0788475 8.66301e-20)
(-0.474912 0.0787056 -4.20685e-20)
(-0.504961 0.0785143 4.09367e-20)
(-0.535367 0.0782874 -3.99775e-20)
(-0.566134 0.0780418 -3.91777e-20)
(-0.597279 0.077799 0)
(-0.62882 0.0775925 0)
(-0.660781 0.0774679 3.76764e-20)
(-0.69321 0.0774771 -3.73863e-20)
(-0.72615 0.0776513 0)
(-0.759611 0.0780053 0)
(-0.793435 0.0785831 3.77191e-20)
(-0.827694 0.0793657 0)
(-0.861674 0.0797071 0)
(-0.895751 0.079159 -3.63693e-20)
(-0.929799 0.0787011 0)
(-0.963439 0.0784491 3.43873e-20)
(-0.997177 0.078523 -6.80976e-20)
(-1.03082 0.0793137 0)
(-1.06521 0.080643 0)
(-1.0991 0.0801429 -1.35203e-19)
(-1.13259 0.0792872 -1.32104e-19)
(-1.16594 0.0784614 -1.29258e-19)
(-1.19915 0.0776799 6.31048e-20)
(-1.23227 0.07694 -6.21467e-20)
(-1.26534 0.0762331 -1.82419e-19)
(-1.29837 0.0755479 1.19155e-19)
(-1.33136 0.0748765 5.86241e-20)
(-1.36432 0.0742112 0)
(-1.39724 0.0735452 -5.65202e-20)
(-1.43012 0.0728726 5.51926e-20)
(-1.46295 0.0721877 0)
(-1.49572 0.0714859 0)
(-1.52842 0.0707624 0)
(-1.56102 0.0700135 -5.19241e-20)
(-1.59352 0.0692352 0)
(-1.62589 0.0684244 1.00269e-19)
(-1.65811 0.0675777 0)
(-1.69017 0.0666926 9.72219e-20)
(-1.72203 0.0657658 0)
(-1.75366 0.0647942 -9.43466e-20)
(-1.78505 0.0637733 0)
(-1.81617 0.0626991 9.16205e-20)
(-1.84697 0.0615648 -4.5001e-20)
(-1.87742 0.0603596 0)
(-1.9075 0.0590633 -8.77667e-20)
(-1.93722 0.0576603 -4.34133e-20)
(-1.96643 0.0562526 -4.28109e-20)
(-1.99499 0.0550512 0)
(-2.02303 0.0540448 -4.13645e-20)
(-2.05075 0.0529094 -4.10458e-20)
(-2.07802 0.0514322 0)
(-2.10463 0.0497334 3.9892e-20)
(-2.13061 0.0479385 -7.84073e-20)
(-2.15574 0.046187 0)
(-2.18015 0.044519 -3.82063e-20)
(-2.20378 0.042807 0)
(-2.22659 0.041048 1.11085e-19)
(-2.24855 0.0392465 0)
(-2.26963 0.0374058 -1.0778e-19)
(-2.28978 0.035529 -3.54325e-20)
(-2.30897 0.0336185 3.47127e-20)
(-2.32717 0.0316772 6.83275e-20)
(-2.34433 0.0297071 -6.72232e-20)
(-2.36043 0.0277114 0)
(-2.37542 0.025692 0)
(-2.38929 0.0236519 0)
(-2.40199 0.0215931 1.88498e-19)
(-2.4135 0.019518 6.17091e-20)
(-2.42378 0.017429 -6.05107e-20)
(-2.43282 0.0153291 0)
(-2.44058 0.013221 -5.79934e-20)
(-2.44703 0.0111074 5.68169e-20)
(-2.45216 0.0089908 5.55505e-20)
(-2.45594 0.00687413 0)
(-2.45834 0.00476113 0)
(-2.45935 0.0026571 0)
(-2.45896 0.000561928 5.0255e-20)
(-2.45716 -0.0015154 0)
(-2.45389 -0.00358526 -9.50393e-20)
(-2.44915 -0.00564169 -1.38169e-19)
(-2.44294 -0.0076902 8.92627e-20)
(-2.43524 -0.00972288 0)
(-2.42604 -0.0117353 4.17775e-20)
(-2.41533 -0.0137246 0)
(-2.4031 -0.0156885 7.7067e-20)
(-2.38936 -0.0176249 -3.71237e-20)
(-2.37409 -0.0195318 -3.55157e-20)
(-2.35731 -0.0214074 0)
(-2.33899 -0.0232502 -9.57286e-20)
(-2.31916 -0.0250582 6.05505e-20)
(-2.29781 -0.0268302 2.82799e-20)
(-2.27494 -0.0285642 0)
(-2.25057 -0.0302592 2.46821e-20)
(-2.2247 -0.0319132 6.9107e-20)
(-2.19733 -0.0335251 0)
(-2.16849 -0.0350936 3.87611e-20)
(-2.13818 -0.0366185 3.49135e-20)
(-2.10642 -0.0380989 3.10032e-20)
(-2.07323 -0.0395338 0)
(-2.03863 -0.0409204 0)
(-2.00262 -0.0422572 0)
(-1.96524 -0.0435411 -7.76471e-21)
(-1.92651 -0.0447724 -4.83773e-21)
(-1.88645 -0.0459495 0)
(-1.84509 -0.0470739 -1.84866e-21)
(-1.80245 -0.0481444 2.57424e-21)
(-1.75857 -0.0491629 0)
(-1.71348 -0.0501284 1.25509e-20)
(-1.6672 -0.0510427 3.24681e-20)
(-1.61977 -0.0518987 -2.18943e-20)
(-1.57123 -0.0526939 -2.46769e-20)
(-1.52162 -0.0534333 0)
(-1.47097 -0.0541224 0)
(-1.41932 -0.0547556 0)
(-1.36671 -0.0553317 -4.63977e-20)
(-1.31318 -0.0558516 4.93368e-20)
(-1.25878 -0.0563172 1.11126e-19)
(-1.20356 -0.0567293 -6.1884e-20)
(-1.14755 -0.0570888 6.49353e-20)
(-1.09081 -0.0573968 7.25344e-20)
(-1.03337 -0.0576539 0)
(-0.975278 -0.0578611 0)
(-0.916584 -0.0580191 -8.66687e-20)
(-0.857329 -0.0581291 0)
(-0.797559 -0.0581923 0)
(-0.737316 -0.0582099 2.09726e-19)
(-0.676644 -0.0581833 0)
(-0.615588 -0.0581139 1.15341e-19)
(-0.554186 -0.0580034 -1.23697e-19)
(-0.49248 -0.057853 0)
(-0.430506 -0.0576651 1.33342e-19)
(-0.368296 -0.0574433 0)
(-0.305868 -0.0571956 0)
(-0.243238 -0.0569487 -1.54382e-19)
(-0.18046 -0.0567806 3.18917e-19)
(-0.117703 -0.0566258 -1.67038e-19)
(-0.0548424 -0.0559128 0)
(0.00787336 -0.0550829 0)
(0.0706396 -0.0546321 1.78746e-19)
(0.133351 -0.0543198 0)
(0.195904 -0.053995 1.8228e-19)
(0.258419 -0.0532812 0)
(0.320615 -0.0520924 0)
(0.382725 -0.0512854 0)
(0.444592 -0.0504656 1.91649e-19)
(0.506269 -0.0498617 0)
(0.56784 -0.0493337 -1.94652e-19)
(0.629201 -0.0485764 0)
(0.690386 -0.0477403 0)
(0.751249 -0.0468485 3.95294e-19)
(0.811619 -0.0458459 -3.97629e-19)
(0.871286 -0.0446306 0)
(0.929793 -0.0429743 0)
(0.986669 -0.0403949 0)
(1.03935 -0.0358557 1.22527e-18)
(1.09029 -0.0265872 0)
(1.1175 -0.00441572 -8.49857e-19)
(-0.00346917 -0.0306492 -9.29525e-22)
(-0.0109776 -0.0085323 1.09641e-18)
(-0.0214372 0.0144213 0)
(-0.0341196 0.0343133 -4.48904e-19)
(-0.0482753 0.0513652 0)
(-0.0636586 0.0657069 0)
(-0.0803912 0.077572 3.72599e-23)
(-0.0985741 0.0873565 1.41671e-19)
(-0.118186 0.0955648 1.32015e-19)
(-0.138977 0.102679 1.23495e-19)
(-0.160629 0.108948 0)
(-0.182844 0.114422 0)
(-0.205442 0.119028 -1.02619e-19)
(-0.228455 0.122707 -1.94034e-19)
(-0.252005 0.125532 1.83971e-19)
(-0.276162 0.127663 0)
(-0.300929 0.129268 1.66839e-19)
(-0.326281 0.130484 -7.97868e-20)
(-0.352178 0.131409 0)
(-0.378579 0.13211 1.47376e-19)
(-0.405451 0.132638 7.11147e-20)
(-0.432766 0.133027 -1.37712e-19)
(-0.460504 0.133306 -6.68435e-20)
(-0.488654 0.133502 0)
(-0.51721 0.13364 1.27162e-19)
(-0.546173 0.133745 1.24536e-19)
(-0.575543 0.133848 0)
(-0.605326 0.133985 1.20384e-19)
(-0.635523 0.134193 0)
(-0.666123 0.13451 1.17344e-19)
(-0.697069 0.134953 5.799e-20)
(-0.728276 0.135478 0)
(-0.759641 0.135988 0)
(-0.79101 0.136313 0)
(-0.82224 0.136207 0)
(-0.853246 0.135479 0)
(-0.884222 0.134553 0)
(-0.915211 0.133399 1.0198e-19)
(-0.94605 0.132332 -1.49896e-19)
(-0.97676 0.131395 0)
(-1.00725 0.130492 0)
(-1.03758 0.129303 0)
(-1.06791 0.127684 1.26843e-22)
(-1.09835 0.126143 9.11596e-20)
(-1.12886 0.12475 1.78456e-19)
(-1.15939 0.123468 -1.74899e-19)
(-1.18993 0.122263 -8.56709e-20)
(-1.22047 0.121109 8.42126e-20)
(-1.25101 0.119988 -1.71697e-22)
(-1.28155 0.118883 8.09896e-20)
(-1.31208 0.117783 0)
(-1.3426 0.116678 7.81671e-20)
(-1.37309 0.11556 -1.79338e-22)
(-1.40355 0.114418 0)
(-1.43397 0.113248 0)
(-1.46432 0.112041 -7.3095e-20)
(-1.4946 0.110792 0)
(-1.52478 0.109495 0)
(-1.55485 0.108145 6.95173e-20)
(-1.58479 0.106738 1.37257e-19)
(-1.61456 0.10527 -6.77663e-20)
(-1.64416 0.103736 0)
(-1.67355 0.102133 6.5761e-20)
(-1.7027 0.100458 0)
(-1.73159 0.0987075 6.35074e-20)
(-1.76019 0.0968807 6.29197e-20)
(-1.78845 0.0949743 -1.23693e-19)
(-1.81637 0.0929821 -6.07973e-20)
(-1.84394 0.0909111 0)
(-1.87115 0.0888152 1.18452e-19)
(-1.89795 0.0867341 0)
(-1.92419 0.0845956 1.7276e-19)
(-1.94981 0.0822786 1.13405e-19)
(-1.97481 0.0797692 1.11757e-19)
(-1.99923 0.0771458 -1.10125e-19)
(-2.02307 0.0744636 1.62891e-19)
(-2.04628 0.0717729 0)
(-2.06879 0.0690507 0)
(-2.09055 0.066266 -1.03701e-19)
(-2.11151 0.0634168 -1.53265e-19)
(-2.13166 0.0605061 0)
(-2.15095 0.0575373 4.9551e-20)
(-2.16935 0.0545144 0)
(-2.18682 0.0514411 -1.43642e-19)
(-2.20332 0.0483214 -1.46286e-22)
(-2.21884 0.045159 1.31871e-22)
(-2.23332 0.0419583 9.0836e-20)
(-2.24674 0.0387231 0)
(-2.25906 0.0354576 -8.75259e-20)
(-2.27026 0.0321655 -7.056e-23)
(-2.2803 0.0288508 0)
(-2.28916 0.0255176 0)
(-2.29681 0.02217 0)
(-2.30322 0.0188124 7.8951e-20)
(-2.30836 0.0154488 0)
(-2.31221 0.012083 0)
(-2.31475 0.00871918 0)
(-2.31596 0.00536167 0)
(-2.31581 0.00201432 0)
(-2.3143 -0.0013209 6.78268e-20)
(-2.31139 -0.00463163 0)
(-2.30708 -0.00791793 6.37104e-20)
(-2.30134 -0.0111804 6.16598e-20)
(-2.29417 -0.0144124 -5.95802e-20)
(-2.28555 -0.0176124 0)
(-2.27547 -0.0207756 -5.53336e-20)
(-2.26393 -0.0238983 0)
(-2.25093 -0.0269769 -5.09697e-20)
(-2.23644 -0.0300083 4.87437e-20)
(-2.22048 -0.0329893 1.40015e-19)
(-2.20304 -0.0359172 0)
(-2.18412 -0.0387892 1.26287e-19)
(-2.16371 -0.0416027 4.01981e-20)
(-2.14184 -0.0443551 0)
(-2.11849 -0.0470442 7.02672e-20)
(-2.09367 -0.0496674 6.54429e-20)
(-2.06739 -0.0522225 -9.04525e-20)
(-2.03967 -0.054707 0)
(-2.0105 -0.0571195 -2.4895e-20)
(-1.97991 -0.0594588 -2.23571e-20)
(-1.9479 -0.0617237 -6.02844e-20)
(-1.91451 -0.063912 0)
(-1.87973 -0.0660206 0)
(-1.84359 -0.0680462 0)
(-1.80611 -0.0699861 -1.03043e-20)
(-1.76732 -0.0718387 0)
(-1.72722 -0.0736031 0)
(-1.68586 -0.0752793 1.15348e-21)
(-1.64326 -0.0768673 -1.60056e-21)
(-1.59944 -0.0783684 0)
(-1.55444 -0.0797824 0)
(-1.50829 -0.081109 -1.99672e-20)
(-1.46102 -0.0823428 0)
(-1.41267 -0.0834807 3.13349e-20)
(-1.36326 -0.0845273 3.58157e-20)
(-1.31285 -0.0854862 0)
(-1.26146 -0.0863546 0)
(-1.20913 -0.0871304 -5.31463e-20)
(-1.15592 -0.0878149 -1.32252e-21)
(-1.10185 -0.0884104 -1.3373e-21)
(-1.04698 -0.0889185 0)
(-0.991351 -0.0893408 -1.54613e-19)
(-0.935 -0.0896788 0)
(-0.877975 -0.089934 0)
(-0.820318 -0.090108 0)
(-0.762073 -0.0902026 1.01811e-19)
(-0.703283 -0.0902198 0)
(-0.643994 -0.0901622 -2.24738e-19)
(-0.584247 -0.0900322 -1.19791e-19)
(-0.524086 -0.089833 0)
(-0.463553 -0.0895677 -1.31798e-19)
(-0.402688 -0.0892407 0)
(-0.341532 -0.0888563 0)
(-0.28012 -0.0884213 -4.46493e-19)
(-0.218486 -0.0879449 3.08664e-19)
(-0.156659 -0.0874419 0)
(-0.0946717 -0.0869376 3.3252e-19)
(-0.0325972 -0.0864653 -1.73608e-19)
(0.0293955 -0.0859847 0)
(0.0913932 -0.085163 0)
(0.153529 -0.0840789 0)
(0.215754 -0.0831163 -5.6155e-19)
(0.277861 -0.0822664 0)
(0.339782 -0.081465 -1.94091e-19)
(0.401611 -0.0803922 0)
(0.463398 -0.07926 0)
(0.525128 -0.0783044 0)
(0.586681 -0.0773561 0)
(0.648032 -0.0765459 0)
(0.709136 -0.0757103 0)
(0.770041 -0.0746742 -4.2476e-19)
(0.830793 -0.0735284 0)
(0.891272 -0.0722806 -2.18211e-19)
(0.951319 -0.0708543 6.59112e-19)
(1.01073 -0.069091 0)
(1.06913 -0.0666873 0)
(1.12617 -0.0630465 -4.51895e-19)
(1.18007 -0.0569226 -4.58858e-19)
(1.23375 -0.0456678 4.64121e-19)
(1.27441 -0.0220605 4.77707e-19)
(-0.00882168 -0.0101112 -3.12549e-18)
(-0.0213361 0.0199919 -1.26887e-18)
(-0.0354578 0.0448956 -4.64713e-19)
(-0.0512005 0.0659393 -1.69998e-19)
(-0.0677306 0.0842258 0)
(-0.0846978 0.100095 2.52811e-19)
(-0.102248 0.11373 -1.1592e-19)
(-0.120542 0.125346 0)
(-0.139628 0.135224 -1.01416e-19)
(-0.159452 0.143653 0)
(-0.179902 0.150861 1.81053e-19)
(-0.200871 0.157002 0)
(-0.222295 0.162175 8.15823e-20)
(-0.244164 0.166459 1.55414e-19)
(-0.266499 0.169956 -1.4837e-19)
(-0.28932 0.172783 0)
(-0.312636 0.175058 -1.3623e-19)
(-0.336436 0.17689 0)
(-0.360704 0.178363 0)
(-0.38542 0.179549 -1.22123e-19)
(-0.410562 0.1805 0)
(-0.436112 0.181264 -4.84789e-23)
(-0.46205 0.181877 0)
(-0.488361 0.182372 0)
(-0.515026 0.182777 3.93771e-23)
(-0.542028 0.183118 -1.04244e-19)
(-0.569348 0.183418 -1.02211e-19)
(-0.596957 0.183695 -1.00281e-19)
(-0.624816 0.183958 0)
(-0.65287 0.184193 -1.93557e-19)
(-0.68104 0.184362 0)
(-0.709239 0.184409 -9.32375e-20)
(-0.737382 0.184253 0)
(-0.765405 0.18381 0)
(-0.793296 0.183008 8.73406e-20)
(-0.821115 0.181848 0)
(-0.848947 0.180489 -8.33745e-20)
(-0.87682 0.179047 -3.05309e-23)
(-0.904688 0.177639 1.59479e-19)
(-0.932512 0.176269 -1.56142e-19)
(-0.960256 0.174864 0)
(-0.987954 0.173314 0)
(-1.01571 0.171583 -7.3307e-20)
(-1.0436 0.169854 0)
(-1.0716 0.168196 -7.04486e-20)
(-1.09967 0.166611 6.90819e-20)
(-1.12781 0.165085 6.77735e-20)
(-1.15599 0.163601 0)
(-1.1842 0.162142 -6.53129e-20)
(-1.21244 0.160693 -6.41534e-20)
(-1.2407 0.15924 1.25924e-19)
(-1.26896 0.157771 -6.19594e-20)
(-1.29722 0.156276 -6.09191e-20)
(-1.32546 0.154746 0)
(-1.35367 0.15317 0)
(-1.38184 0.151541 5.79954e-20)
(-1.40994 0.14985 0)