# vtk DataFile Version 2.0
tracks
ASCII
DATASET POLYDATA
POINTS 12065 float
-0.0206 0.000999968 1e-05 -0.02058 0.00099997 1e-05 -0.02056 0.000999974 1e-05 -0.02054 0.000999981
1e-05 -0.02052 0.000999989 1e-05 -0.0205 0.001 1e-05 -0.0202034 0.00100016 1e-05
-0.0199069 0.00100058 1e-05 -0.0196103 0.00100124 1e-05 -0.0193137 0.00100214 1e-05 -0.0190172
0.00100329 1e-05 -0.0187132 0.00100465 1e-05 -0.0184093 0.00100605 1e-05 -0.0181054 0.00100748
1e-05 -0.0178015 0.00100894 1e-05 -0.0174976 0.00101043 1e-05 -0.0172058 0.00101188 1e-05
-0.016914 0.00101332 1e-05 -0.0166222 0.00101477 1e-05 -0.0163305 0.00101621 1e-05 -0.0160387
0.00101766 1e-05 -0.0157586 0.00101905 1e-05 -0.0154784 0.00102044 1e-05 -0.0151983 0.00102183
1e-05 -0.0149182 0.00102324 1e-05 -0.0146381 0.00102464 1e-05 -0.0145518 0.00102508 1e-05
-0.0144655 0.00102551 1e-05 -0.0143791 0.00102595 1e-05 -0.0142928 0.00102638 1e-05 -0.0142073
0.00102682 1e-05 -0.0140245 0.00102774 1e-05 -0.0138418 0.00102867 1e-05 -0.013659 0.0010296
1e-05 -0.0134762 0.00103053 1e-05 -0.0132934 0.00103146 1e-05 -0.0130353 0.00103278 1e-05
-0.0127771 0.0010341 1e-05 -0.0125189 0.00103542 1e-05 -0.0122607 0.00103674 1e-05 -0.0120025
0.00103806 1e-05 -0.0117547 0.00103933 1e-05 -0.0115068 0.0010406 1e-05 -0.0112589 0.00104186
1e-05 -0.0110111 0.00104313 1e-05 -0.0107632 0.00104439 1e-05 -0.0105252 0.00104559 1e-05
-0.0102873 0.0010468 1e-05 -0.0100493 0.001048 1e-05 -0.00981133 0.0010492 1e-05 -0.00957337
0.0010504 1e-05 -0.00934491 0.00105155 1e-05 -0.00911645 0.00105269 1e-05 -0.008888 0.00105383
1e-05 -0.00865954 0.00105497 1e-05 -0.00843108 0.0010561 1e-05 -0.00821175 0.00105718 1e-05
-0.00799242 0.00105826 1e-05 -0.00777309 0.00105934 1e-05 -0.00755376 0.00106042 1e-05 -0.00733443
0.00106149 1e-05 -0.00712387 0.00106251 1e-05 -0.0069133 0.00106353 1e-05 -0.00670273 0.00106454
1e-05 -0.00649216 0.00106555 1e-05 -0.0062816 0.00106656 1e-05 -0.00607944 0.00106752 1e-05
-0.00587729 0.00106848 1e-05 -0.00567514 0.00106943 1e-05 -0.00547298 0.00107038 1e-05 -0.00527083
0.00107132 1e-05 -0.00507675 0.00107222 1e-05 -0.00488267 0.00107311 1e-05 -0.0046886 0.001074
1e-05 -0.00449452 0.00107489 1e-05 -0.00430044 0.00107577 1e-05 -0.00411412 0.0010766 1e-05
-0.0039278 0.00107743 1e-05 -0.00374147 0.00107826 1e-05 -0.00355515 0.00107908 1e-05 -0.00336883
0.00107989 1e-05 -0.00318995 0.00108067 1e-05 -0.00301107 0.00108143 1e-05 -0.00283219 0.00108219
1e-05 -0.00265331 0.00108295 1e-05 -0.00247443 0.00108369 1e-05 -0.0023027 0.00108439 1e-05
-0.00213097 0.00108509 1e-05 -0.00195924 0.00108578 1e-05 -0.0017875 0.00108645 1e-05 -0.00161577
0.00108712 1e-05 -0.0014509 0.00108774 1e-05 -0.00128603 0.00108836 1e-05 -0.00112116 0.00108896
1e-05 -0.000956289 0.00108954 1e-05 -0.000791418 0.00109011 1e-05 -0.000633135 0.00109063 1e-05
-0.000474851 0.00109115 1e-05 -0.000316567 0.00109164 1e-05 -0.000158283 0.00109212 1e-05 0
0.00109258 1e-05 0.000105677 0.00109287 1e-05 0.000211355 0.00109315 1e-05 0.000317032 0.00109343
1e-05 0.00042271 0.0010937 1e-05 0.000528387 0.00109396 1e-05 0.000634886 0.00109421 1e-05
0.000741385 0.00109447 1e-05 0.000847885 0.00109472 1e-05 0.000954384 0.00109498 1e-05 0.00106088
0.00109524 1e-05 0.00116821 0.0010955 1e-05 0.00127554 0.00109576 1e-05 0.00138286 0.00109602
1e-05 0.00149019 0.00109628 1e-05 0.00159752 0.00109654 1e-05 0.00170568 0.00109681 1e-05
0.00181384 0.00109707 1e-05 0.001922 0.00109734 1e-05 0.00203016 0.0010976 1e-05 0.00213833
0.00109785 1e-05 0.00224733 0.00109811 1e-05 0.00235633 0.00109836 1e-05 0.00246533 0.00109861
1e-05 0.00257434 0.00109886 1e-05 0.00268334 0.0010991 1e-05 0.00279319 0.00109933 1e-05
0.00290304 0.00109956 1e-05 0.00301289 0.00109979 1e-05 0.00312274 0.00110001 1e-05 0.00323259
0.00110023 1e-05 0.00334329 0.00110044 1e-05 0.003454 0.00110065 1e-05 0.0035647 0.00110085
1e-05 0.0036754 0.00110105 1e-05 0.00378611 0.00110124 1e-05 0.00389767 0.00110143 1e-05
0.00400924 0.00110162 1e-05 0.0041208 0.00110179 1e-05 0.00423237 0.00110197 1e-05 0.00434393
0.00110213 1e-05 0.00445636 0.0011023 1e-05 0.00456879 0.00110245 1e-05 0.00468123 0.00110261
1e-05 0.00479366 0.00110276 1e-05 0.00490609 0.0011029 1e-05 0.0050194 0.00110303 1e-05
0.0051327 0.00110317 1e-05 0.00524601 0.0011033 1e-05 0.00535931 0.00110342 1e-05 0.00547262
0.00110354 1e-05 0.00558681 0.00110365 1e-05 0.005701 0.00110376 1e-05 0.00581518 0.00110386
1e-05 0.00592937 0.00110396 1e-05 0.00604356 0.00110405 1e-05 0.00615863 0.00110414 1e-05
0.00627371 0.00110422 1e-05 0.00638878 0.0011043 1e-05 0.00650386 0.00110437 1e-05 0.00661893
0.00110444 1e-05 0.00665182 0.00110445 1e-05 0.00668471 0.00110447 1e-05 0.0067176 0.00110449
1e-05 0.00675049 0.0011045 1e-05 0.00678303 0.00110452 1e-05 0.00686618 0.00110456 1e-05
0.00694933 0.0011046 1e-05 0.00703248 0.00110463 1e-05 0.00711563 0.00110466 1e-05 0.00719878
0.00110469 1e-05 0.00731565 0.00110473 1e-05 0.00743252 0.00110476 1e-05 0.00754939 0.00110479
1e-05 0.00766626 0.00110481 1e-05 0.00778313 0.00110483 1e-05 0.00790091 0.00110483 1e-05
0.00801869 0.00110484 1e-05 0.00813647 0.00110484 1e-05 0.00825425 0.00110483 1e-05 0.00837203
0.00110482 1e-05 0.00849073 0.00110479 1e-05 0.00860942 0.00110477 1e-05 0.00872812 0.00110474
1e-05 0.00884682 0.00110471 1e-05 0.00896551 0.00110467 1e-05 0.00908513 0.0011046 1e-05
0.00920475 0.00110455 1e-05 0.00932437 0.00110449 1e-05 0.00944398 0.00110442 1e-05 0.0095636
0.00110435 1e-05 0.00968415 0.00110425 1e-05 0.0098047 0.00110416 1e-05 0.00992525 0.00110407
1e-05 0.0100458 0.00110397 1e-05 0.0101663 0.00110386 1e-05 0.0102878 0.00110373 1e-05
0.0104093 0.00110361 1e-05 0.0105308 0.00110348 1e-05 0.0106523 0.00110334 1e-05 0.0107738
0.0011032 1e-05 0.0108962 0.00110302 1e-05 0.0110186 0.00110286 1e-05 0.0111411 0.00110269
1e-05 0.0112635 0.00110252 1e-05 0.0113859 0.00110234 1e-05 0.0115093 0.00110212 1e-05
0.0116327 0.00110192 1e-05 0.0117561 0.00110172 1e-05 0.0118795 0.0011015 1e-05 0.0120028
0.00110128 1e-05 0.0121272 0.00110102 1e-05 0.0122515 0.00110078 1e-05 0.0123759 0.00110053
1e-05 0.0125002 0.00110027 1e-05 0.0126245 0.00110001 1e-05 0.0127498 0.00109971 1e-05
0.0128752 0.00109943 1e-05 0.0130005 0.00109913 1e-05 0.0131258 0.00109883 1e-05 0.0132511
0.00109852 1e-05 0.0133774 0.00109818 1e-05 0.0135036 0.00109785 1e-05 0.0136299 0.00109751
1e-05 0.0137562 0.00109717 1e-05 0.0138825 0.00109681 1e-05 0.0140098 0.00109642 1e-05
0.014137 0.00109604 1e-05 0.0142643 0.00109566 1e-05 0.0143915 0.00109526 1e-05 0.0145188
0.00109486 1e-05 0.0146471 0.00109442 1e-05 0.0147753 0.001094 1e-05 0.0149036 0.00109356
1e-05 0.0150318 0.00109312 1e-05 0.0151601 0.00109267 1e-05 0.0152893 0.00109218 1e-05
0.0154186 0.00109171 1e-05 0.0155478 0.00109122 1e-05 0.0156771 0.00109073 1e-05 0.0158063
0.00109022 1e-05 0.0159366 0.00108969 1e-05 0.0160668 0.00108916 1e-05 0.0161971 0.00108863
1e-05 0.0163273 0.00108808 1e-05 0.0164576 0.00108752 1e-05 0.0165889 0.00108694 1e-05
0.0167201 0.00108636 1e-05 0.0168514 0.00108577 1e-05 0.0169827 0.00108517 1e-05 0.0171139
0.00108455 1e-05 0.0172462 0.00108392 1e-05 0.0173785 0.00108328 1e-05 0.0175108 0.00108264
1e-05 0.0176431 0.00108198 1e-05 0.0177754 0.00108132 1e-05 0.0179087 0.00108063 1e-05
0.018042 0.00107994 1e-05 0.0181753 0.00107924 1e-05 0.0183087 0.00107852 1e-05 0.018442
0.0010778 1e-05 0.0185763 0.00107707 1e-05 0.0187107 0.00107632 1e-05 0.018845 0.00107556
1e-05 0.0189794 0.00107479 1e-05 0.0191137 0.00107401 1e-05 0.0192491 0.00107322 1e-05
0.0193845 0.00107241 1e-05 0.0195199 0.0010716 1e-05 0.0196553 0.00107077 1e-05 0.0197907
0.00106993 1e-05 0.0199272 0.00106909 1e-05 0.0200636 0.00106823 1e-05 0.0202001 0.00106735
1e-05 0.0203365 0.00106646 1e-05 0.020473 0.00106557 1e-05 0.0206105 0.00106467 1e-05
0.020748 0.00106376 1e-05 0.0208855 0.00106282 1e-05 0.021023 0.00106187 1e-05 0.0211606
0.00106093 1e-05 0.0212991 0.00105997 1e-05 0.0214377 0.001059 1e-05 0.0215763 0.001058
1e-05 0.0217149 0.001057 1e-05 0.0218535 0.00105599 1e-05 0.0219931 0.00105498 1e-05
0.0221328 0.00105395 1e-05 0.0222724 0.00105289 1e-05 0.0224121 0.00105183 1e-05 0.0225517
0.00105077 1e-05 0.0226925 0.0010497 1e-05 0.0228332 0.00104861 1e-05 0.022974 0.00104749
1e-05 0.0231147 0.00104637 1e-05 0.0232555 0.00104525 1e-05 0.0233973 0.00104412 1e-05
0.0235391 0.00104297 1e-05 0.023681 0.00104179 1e-05 0.0238228 0.00104061 1e-05 0.0239647
0.00103943 1e-05 0.0241076 0.00103824 1e-05 0.0242505 0.00103703 1e-05 0.0243935 0.0010358
1e-05 0.0245364 0.00103455 1e-05 0.0246794 0.00103331 1e-05 0.0248234 0.00103207 1e-05
0.0249675 0.00103079 1e-05 0.0251115 0.0010295 1e-05 0.0252556 0.00102819 1e-05 0.0253996
0.00102689 1e-05 0.0255448 0.00102558 1e-05 0.02569 0.00102425 1e-05 0.0258351 0.00102289
1e-05 0.0259803 0.00102153 1e-05 0.0261255 0.00102016 1e-05 0.0262718 0.0010188 1e-05
0.0264181 0.0010174 1e-05 0.0265644 0.00101598 1e-05 0.0267107 0.00101455 1e-05 0.026857
0.00101313 1e-05 0.0270044 0.0010117 1e-05 0.0271519 0.00101024 1e-05 0.0272993 0.00100876
1e-05 0.0274468 0.00100727 1e-05 0.0275942 0.00100577 1e-05 0.0277428 0.00100428 1e-05
0.0278914 0.00100275 1e-05 0.0280399 0.00100121 1e-05 0.0281885 0.000999656 1e-05 0.0283371
0.000998098 1e-05 0.0284869 0.000996535 1e-05 0.0286366 0.000994941 1e-05 0.0287863 0.000993333
1e-05 0.0289361 0.000991715 1e-05 0.0290858 0.000990089 1e-05 0.0292367 0.000988457 1e-05
0.0293876 0.000986794 1e-05 0.0295385 0.00098512 1e-05 0.0296894 0.000983434 1e-05 0.0298403
0.000981739 1e-05 0.0299924 0.000980036 1e-05 0.0301445 0.000978303 1e-05 0.0302966 0.000976559
1e-05 0.0304486 0.000974805 1e-05 0.0306007 0.000973039 1e-05 0.030754 0.000971263 1e-05
0.0309072 0.000969459 1e-05 0.0310605 0.000967644 1e-05 0.0312138 0.000965818 1e-05 0.031367
0.00096398 1e-05 0.0315215 0.000962127 1e-05 0.0316759 0.00096025 1e-05 0.0318304 0.000958361
1e-05 0.0319848 0.00095646 1e-05 0.0321393 0.000954548 1e-05 0.0322949 0.000952616 1e-05
0.0324506 0.000950663 1e-05 0.0326062 0.000948697 1e-05 0.0327619 0.000946719 1e-05 0.0329175
[...]
POINT_DATA 12065
FIELD attributes 4
age 1 12065 float
-9.99912e-06 -7.99918e-06 -5.9993e-06 -3.99947e-06 -1.99971e-06 0 2.96524e-05 5.92903e-05 8.89135e-05 0.000118522 0.000148117
0.000178431 0.000208729 0.000239016 0.000269292 0.000299557 0.000328607 0.000357652 0.000386695 0.000415737 0.000444776
0.000472657 0.000500537 0.000528418 0.000556301 0.000584186 0.000592779 0.000601372 0.000609966 0.000618559 0.000627074
0.000645272 0.00066347 0.00068167 0.000699871 0.000718072 0.000743786 0.000769502 0.000795221 0.000820942 0.000846666
0.000871366 0.000896067 0.000920771 0.000945479 0.00097019 0.000993918 0.00101765 0.00104138 0.00106512 0.00108886
0.00111165 0.00113445 0.00115725 0.00118005 0.00120286 0.00122477 0.00124667 0.00126857 0.00129048 0.0013124
0.00133344 0.00135449 0.00137554 0.00139659 0.00141764 0.00143787 0.00145808 0.00147831 0.00149853 0.00151876
0.0015382 0.00155762 0.00157705 0.00159649 0.00161592 0.0016346 0.00165326 0.00167193 0.0016906 0.00170928
0.00172722 0.00174515 0.00176309 0.00178103 0.00179898 0.00181622 0.00183345 0.00185068 0.00186792 0.00188516
0.00190172 0.00191828 0.00193483 0.00195139 0.00196796 0.00198388 0.00199978 0.00201569 0.00203161 0.00204753
0.00205816 0.00206879 0.00207943 0.00209006 0.0021007 0.00211143 0.00212215 0.00213288 0.00214361 0.00215434
0.00216517 0.00217599 0.00218681 0.00219763 0.00220846 0.00221938 0.00223029 0.00224121 0.00225212 0.00226304
0.00227406 0.00228507 0.00229608 0.00230709 0.0023181 0.00232921 0.00234031 0.00235142 0.00236252 0.00237363
0.00238484 0.00239604 0.00240724 0.00241845 0.00242966 0.00244096 0.00245226 0.00246356 0.00247487 0.00248618
0.00249758 0.00250899 0.00252039 0.0025318 0.00254321 0.00255472 0.00256623 0.00257774 0.00258926 0.00260078
0.00261239 0.00262401 0.00263563 0.00264725 0.00265888 0.00267061 0.00268234 0.00269407 0.00270581 0.00271755
0.00272091 0.00272427 0.00272762 0.00273098 0.00273431 0.0027428 0.0027513 0.0027598 0.0027683 0.0027768
0.00278877 0.00280073 0.0028127 0.00282468 0.00283666 0.00284875 0.00286084 0.00287294 0.00288504 0.00289715
0.00290938 0.0029216 0.00293382 0.00294606 0.0029583 0.00297067 0.00298302 0.00299538 0.00300775 0.00302013
0.00303265 0.00304514 0.00305764 0.00307015 0.00308267 0.00309534 0.00310798 0.00312062 0.00313328 0.00314595
0.00315878 0.00317156 0.00318436 0.00319717 0.00320999 0.00322298 0.00323592 0.00324888 0.00326184 0.00327482
0.00328797 0.00330108 0.00331419 0.00332732 0.00334046 0.00335379 0.00336706 0.00338034 0.00339364 0.00340695
0.00342045 0.0034339 0.00344735 0.00346082 0.0034743 0.00348799 0.00350162 0.00351525 0.0035289 0.00354257
0.00355644 0.00357025 0.00358407 0.0035979 0.00361176 0.00362582 0.00363983 0.00365383 0.00366785 0.0036819
0.00369616 0.00371036 0.00372456 0.00373877 0.00375302 0.00376747 0.00378188 0.00379627 0.00381067 0.00382513
0.00383978 0.00385439 0.00386898 0.00388359 0.00389825 0.0039131 0.00392792 0.00394272 0.00395753 0.0039724
0.00398746 0.00400248 0.00401749 0.00403251 0.00404759 0.00406286 0.0040781 0.00409331 0.00410855 0.00412384
0.00413932 0.00415478 0.00417021 0.00418566 0.00420118 0.00421687 0.00423254 0.0042482 0.00426388 0.00427961
0.00429552 0.00431141 0.00432729 0.00434319 0.00435915 0.00437528 0.00439139 0.0044075 0.00442362 0.0044398
0.00445615 0.0044725 0.00448883 0.00450518 0.00452158 0.00453816 0.00455473 0.00457129 0.00458787 0.0046045
0.00462131 0.00463811 0.0046549 0.00467171 0.00468857 0.0047056 0.00472263 0.00473966 0.00475671 0.00477379
0.00479106 0.00480832 0.00482559 0.00484287 0.00486019 0.00487768 0.00489518 0.00491269 0.00493021 0.00494776
0.00496549 0.00498322 0.00500097 0.00501873 0.00503652 0.00505448 0.00507245 0.00509043 0.00510844 0.00512646
0.00514466 0.00516287 0.0051811 0.00519934 0.0052176 0.00523604 0.00525449 0.00527296 0.00529145 0.00530995
0.00532863 0.00534732 0.00536604 0.00538476 0.00540351 0.00542244 0.00544137 0.00546033 0.0054793 0.0054983
0.00551746 0.00553665 0.00555585 0.00557507 0.00559431 0.00561372 0.00563315 0.0056526 0.00567207 0.00569156
0.00571122 0.0057309 0.00575059 0.00577031 0.00579005 0.00580518 0.00582032 0.00583548 0.00585065 0.00586531
0.00587021 0.00587511 0.00588001 0.00588491 0.00588981 0.00590997 0.00593015 0.00595035 0.00597058 0.00599082
0.00601124 0.00603167 0.00605213 0.00607261 0.00609311 0.00611379 0.00613448 0.0061552 0.00617594 0.00619669
0.00621763 0.00623858 0.00625956 0.00628056 0.00630158 0.00632277 0.00634399 0.00636523 0.00638649 0.00640777
0.00642923 0.00645071 0.00647222 0.00649374 0.00651529 0.00653701 0.00655875 0.00658053 0.00660232 0.00662413
0.00664612 0.00666813 0.00669017 0.00671223 0.00673431 0.00675657 0.00677886 0.00680117 0.0068235 0.00684585
0.00686838 0.00689094 0.00691352 0.00693613 0.00695875 0.00698156 0.00700439 0.00702725 0.00705014 0.00707304
0.00709612 0.00711923 0.00714238 0.00716554 0.00718871 0.00721208 0.00723547 0.0072589 0.00728234 0.0073058
0.00732945 0.00735313 0.00737684 0.00740057 0.00742431 0.00744825 0.00747222 0.00749622 0.00752024 0.00754427
0.0075685 0.00759276 0.00761705 0.00764136 0.00766569 0.00769022 0.00771477 0.00773936 0.00776396 0.00778858
0.00781341 0.00783827 0.00786315 0.00788806 0.00791298 0.00793811 0.00796328 0.00798846 0.00801367 0.0080389
0.00806434 0.00808981 0.00811531 0.00814082 0.00816636 0.00819212 0.0082179 0.00824371 0.00826954 0.00829539
0.00832147 0.00834757 0.00837369 0.00839984 0.00842601 0.00843103 0.00843605 0.00844107 0.0084461 0.00845105
0.00847247 0.0084939 0.00851534 0.00853681 0.00855829 0.00858501 0.00861177 0.00863856 0.00866536 0.0086922
0.00871927 0.00874636 0.00877349 0.00880064 0.00882782 0.00885522 0.00888266 0.00891013 0.00893763 0.00896516
0.00899291 0.0090207 0.00904852 0.00907638 0.00910426 0.00913236 0.00916051 0.0091887 0.00921691 0.00924515
0.00927362 0.00930213 0.00933069 0.00935927 0.00938788 0.00941672 0.0094456 0.00947453 0.00950349 0.00953247
0.00956169 0.00959096 0.00962027 0.00964961 0.00967897 0.00970858 0.00973824 0.00976794 0.00979767 0.00982743
0.00985743 0.00988749 0.00991759 0.00994772 0.00997788 0.0100083 0.0100388 0.0100693 0.0100998 0.0101304
0.0101612 0.0101921 0.010223 0.010254 0.0102849 0.0103162 0.0103475 0.0103789 0.0104102 0.0104417
0.0104462 0.0104507 0.0104552 0.0104597 0.0104642 0.0104914 0.0105187 0.010546 0.0105733 0.0106006
0.0106328 0.010665 0.0106973 0.0107296 0.0107619 0.0107945 0.0108272 0.0108599 0.0108927 0.0109256
0.0109587 0.0109918 0.0110251 0.0110583 0.0110917 0.0111253 0.011159 0.0111927 0.0112265 0.0112603
0.0112944 0.0113286 0.0113629 0.0113972 0.0114316 0.0114662 0.011501 0.0115358 0.0115706 0.0116056
0.0116408 0.0116761 0.0117114 0.0117468 0.0117823 0.0118181 0.011854 0.0118899 0.0119259 0.011962
0.0119764 0.0119909 0.0120053 0.0120198 0.0120339 0.012056 0.0120781 0.0121003 0.0121225 0.0121447
0.0121817 0.0122188 0.0122559 0.0122931 0.0123304 0.012368 0.0124057 0.0124435 0.0124813 0.0125192
0.0125575 0.0125958 0.0126342 0.0126727 0.0127113 0.0127503 0.0127893 0.0128284 0.0128676 0.0129068
0.0129465 0.0129862 0.013026 0.0130659 0.0131059 0.0131463 0.0131867 0.0132273 0.0132679 0.0133087
0.0133401 0.0133716 0.0134031 0.0134347 0.0134647 0.0134748 0.013485 0.0134951 0.0135052 0.0135154
0.0135573 0.0135994 0.0136415 0.0136837 0.013726 0.0137688 0.0138116 0.0138546 0.0138976 0.0139408
0.0139844 0.0140281 0.0140719 0.0141158 0.0141599 0.0142044 0.014249 0.0142937 0.0143385 0.0143835
0.0144289 0.0144744 0.0145201 0.0145659 0.0146118 0.0146555 0.0146993 0.0147433 0.0147873 0.0148288
0.0148321 0.0148354 0.0148386 0.0148419 0.0148452 0.0148926 0.0149402 0.0149878 0.0150357 0.0150837
0.0151321 0.0151808 0.0152295 0.0152784 0.0153275 0.0153771 0.0154268 0.0154767 0.0155267 0.015577
0.0156277 0.0156786 0.0157297 0.0157809 0.0158323 0.0158843 0.0159365 0.0159888 0.0160413 0.016094
0.0161102 0.0161265 0.0161428 0.0161591 0.0161751 0.0162124 0.0162497 0.0162871 0.0163247 0.0163623
0.0164169 0.0164716 0.0165266 0.0165818 0.0166371 0.0166931 0.0167493 0.0168057 0.0168623 0.0169191
0.0169765 0.0170342 0.017092 0.0171501 0.0172085 0.0172675 0.0173267 0.0173861 0.0174458 0.0175057
0.0175131 0.0175205 0.0175279 0.0175353 0.0175426 0.017596 0.0176495 0.0177032 0.0177571 0.0178112
0.0178735 0.017936 0.0179988 0.0180618 0.0181251 0.0181891 0.0182534 0.0183179 0.0183827 0.0184479
0.0185137 0.0185798 0.0186462 0.0187129 0.0187799 0.0188182 0.0188566 0.0188951 0.0189336 0.0189714
0.0190015 0.0190315 0.0190617 0.0190919 0.0191222 0.019192 0.019262 0.0193324 0.0194031 0.0194741
0.019546 0.0196181 0.0196906 0.0197634 0.0198366 0.0199106 0.0199849 0.0200596 0.0201346 0.02021
0.0202685 0.0203271 0.020386 0.0204451 0.0205031 0.0205215 0.0205399 0.0205583 0.0205767 0.0205952
0.0206738 0.0207528 0.0208321 0.0209118 0.0209919 0.021073 0.0211544 0.0212361 0.0213183 0.0214009
0.0214844 0.0215684 0.0216527 0.0217374 0.0218225 0.0218942 0.0219661 0.0220383 0.0221108 0.0221825
0.0221975 0.0222126 0.0222276 0.0222427 0.0222578 0.0223467 0.022436 0.0225257 0.0226158 0.0227064
0.022798 0.0228901 0.0229826 0.0230755 0.0231689 0.0232634 0.0233584 0.0234538 0.0235496 0.0236459
0.0237286 0.0238116 0.023895 0.0239787 0.0240623 0.0240775 0.0240927 0.0241079 0.0241231 0.0241383
0.0242389 0.0243399 0.0244414 0.0245433 0.0246457 0.0247494 0.0248535 0.0249581 0.0250632 0.0251688
0.0252756 0.025383 0.0254908 0.0255992 0.025708 0.025807 0.0259064 0.0260062 0.0261065 0.0262077
0.0262189 0.0262302 0.0262415 0.0262527 0.026264 0.0263776 0.0264916 0.0266062 0.0267212 0.0268367
0.0269536 0.0270711 0.027189 0.0273075 0.0274265 0.0275468 0.0276678 0.0277892 0.0279112 0.0280337
0.0281576 0.0282821 0.0284072 0.0285327 0.0286588 0.0286658 0.0286728 0.0286798 0.0286868 0.0286938
0.0288146 0.0289358 0.0290575 0.0291796 0.0293022 0.0294333 0.029565 0.0296973 0.0298301 0.0299633
0.0300981 0.0302334 0.0303694 0.0305058 0.0306427 0.0307811 0.0309202 0.0310598 0.0311999 0.0313404
0.0313917 0.031443 0.0314944 0.0315459 0.0315978 0.0316893 0.031781 0.0318729 0.031965 0.0320573
0.0322032 0.0323497 0.0324968 0.0326444 0.0327924 0.0329421 0.0330923 0.0332432 0.0333946 0.0335464
0.0336998 0.0338539 0.0340085 0.0341636 0.0343192 0.0344149 0.0345107 0.0346068 0.0347031 0.0348006
0.0348626 0.0349247 0.0349868 0.0350491 0.0351114 0.0352724 0.0354339 0.035596 0.0357586 0.0359216
0.0360863 0.0362515 0.0364174 0.0365837 0.0367503 0.0369187 0.0370876 0.0372571 0.037427 0.0375974
0.0377449 0.0378928 0.038041 0.0381896 0.0383396 0.0383642 0.0383888 0.0384135 0.0384381 0.0384627
0.0386385 0.0388146 0.0389912 0.0391683 0.0393457 0.0395249 0.0397046 0.0398847 0.0400653 0.0402462
0.0404288 0.0406119 0.0407955 0.0409794 0.0411637 0.0413497 0.0415362 0.041723 0.0419102 0.0420978
0.0420997 0.0421016 0.0421035 0.0421054 0.0421073 0.0422948 0.0424826 0.0426707 0.0428592 0.043048
0.0432404 0.0434332 0.0436264 0.0438199 0.0440136 0.044209 0.0444048 0.0446009 0.0447973 0.0449939
0.045183 0.0453724 0.0455619 0.0457517 0.0459387 0.0459485 0.0459584 0.0459683 0.0459781 0.045988
0.046189 0.0463902 0.0465916 0.0467932 0.046995 0.0471984 0.047402 0.0476058 0.0478098 0.0480138
0.0482193 0.0484251 0.048631 0.0488369 0.0490429 0.0491762 0.0493096 0.049443 0.0495763 0.0497089
0.0497833 0.0498578 0.0499322 0.0500067 0.0500811 0.0502903 0.0504995 0.0507087 0.0509178 0.0511268
0.0513372 0.0515476 0.051758 0.0519682 0.0521781 0.0523895 0.0526008 0.0528118 0.0530227 0.0532332
0.0532709 0.0533087 0.0533465 0.0533842 0.0534222 0.0535961 0.0537698 0.0539433 0.0541166 0.0542896
0.0545016 0.0547132 0.0549245 0.0551355 0.0553457 0.0555572 0.0557684 0.0559791 0.0561894 0.0563987
0.0565772 0.0567554 0.0569332 0.0571106 0.0573103 0.0573372 0.0573642 0.0573911 0.057418 0.0574449
0.057654 0.0578624 0.05807 0.0582768 0.0584824 0.0586806 0.0588782 0.0590753 0.0592716 0.0594664
0.0596426 0.059818 0.0599925 0.0601662 0.0603615 0.0603817 0.0604018 0.060422 0.0604421 0.0604622
0.0606657 0.060868 0.0610691 0.061269 0.0614673 0.0616721 0.0618757 0.0620778 0.0622785 0.0624775
0.0626052 0.0627324 0.062859 0.0629849 0.0631268 0.0631991 0.0632711 0.063343 0.0634146 0.063486
0.0636909 0.0638941 0.0640955 0.0642952 0.0644929 0.0646967 0.0648985 0.0650985 0.0652967 0.0654928
0.0656484 0.0658028 0.065956 0.066108 0.0662909 0.0663291 0.0663673 0.0664054 0.0664435 0.0664814
0.0666811 0.0668787 0.0670743 0.067268 0.0674596 0.0676567 0.0678517 0.0680446 0.0682355 0.0684245
0.0686188 0.0688109 0.069001 0.069189 0.0693751 0.0695407 0.0697047 0.0698671 0.070028 0.0702348
0.07025 0.0702651 0.0702802 0.0702953 0.0703104 0.0704987 0.070685 0.0708692 0.0710514 0.0712318
0.0714172 0.0716005 0.0717818 0.0719612 0.0721389 0.0723215 0.0725021 0.0726806 0.0728573 0.0730323
0.0732123 0.0733902 0.0735662 0.0737404 0.0739129 0.0740904 0.0742659 0.0744395 0.0746114 0.0747816
0.0749567 0.0751299 0.0753014 0.0754711 0.0756393 0.0757804 0.0759203 0.0760591 0.0761968 0.0763828
0.0764035 0.0764242 0.0764448 0.0764654 0.076486 0.076657 0.0768263 0.0769939 0.0771599 0.0773243
0.0774935 0.0776609 0.0778268 0.077991 0.0781538 0.0783216 0.0784876 0.078652 0.0788147 0.0789759
0.0791418 0.0793055 0.0794677 0.0796284 0.0797881 0.0799531 0.080117 0.0802793 0.0804396 0.0805975
0.0807587 0.0809168 0.0810718 0.0812257 0.0813796 -9.99984e-06 -7.99985e-06 -5.99987e-06 -3.99991e-06 -1.99995e-06
0 2.9656e-05 5.93096e-05 8.89604e-05 0.000118608 0.000148252 0.000178625 0.000208993 0.000239357 0.000269714
0.000300066 0.000329198 0.000358323 0.000387442 0.000416556 0.000445664 0.000473603 0.000501537 0.000529466 0.00055739
0.000585309 0.000612109 0.000638904 0.000665695 0.000692481 0.000719264 0.000744972 0.000770676 0.000796377 0.000822073
0.000847766 0.000872429 0.000897087 0.000921743 0.000946395 0.000971043 0.000994704 0.00101836 0.00104201 0.00106567
0.00108931 0.00111201 0.00113471 0.00115741 0.0011801 0.00120279 0.00122457 0.00124634 0.00126812 0.00128989
0.00131166 0.00133256 0.00135345 0.00137435 0.00139524 0.00141613 0.00143618 0.00145623 0.00147627 0.00149632
0.00151636 0.0015356 0.00155484 0.00157408 0.00159331 0.00161255 0.00163101 0.00164947 0.00166793 0.00168639
0.00170484 0.00172256 0.00174028 0.00175799 0.0017757 0.00179341 0.00181042 0.00182742 0.00184441 0.00186141
0.00187841 0.00189473 0.00191104 0.00192736 0.00194367 0.00195998 0.00197564 0.0019913 0.00200696 0.00202261
0.00203827 0.00204872 0.00205917 0.00206962 0.00208007 0.00209052 0.00210106 0.00211159 0.00212212 0.00213265
0.00214318 0.00215379 0.0021644 0.00217501 0.00218562 0.00219623 0.00220692 0.00221761 0.00222831 0.002239
0.00224969 0.00226046 0.00227124 0.00228201 0.00229278 0.00230355 0.00231441 0.00232526 0.00233612 0.00234697
0.00235783 0.00236877 0.00237971 0.00239064 0.00240158 0.00241252 0.00242354 0.00243456 0.00244558 0.0024566
0.00246762 0.00247873 0.00248984 0.00250094 0.00251205 0.00252315 0.00253434 0.00254554 0.00255673 0.00256792
0.00257911 0.00259038 0.00260166 0.00261294 0.00262421 0.00263549 0.00264685 0.00265821 0.00266958 0.00268094
0.0026923 0.00270375 0.0027152 0.00272665 0.0027381 0.00274955 0.00276109 0.00277263 0.00278417 0.00279571
0.00280724 0.00281887 0.0028305 0.00284213 0.00285375 0.00286538 0.0028771 0.00288881 0.00290053 0.00291225
0.00292396 0.00293577 0.00294758 0.00295938 0.00297119 0.002983 0.00299489 0.00300679 0.00301869 0.00303059
0.00304248 0.00305447 0.00306646 0.00307845 0.00309044 0.00310243 0.00311451 0.0031266 0.00313868 0.00315076
0.00316284 0.00317502 0.00318719 0.00319937 0.00321154 0.00322371 0.00323598 0.00324825 0.00326052 0.00327279
0.00328506 0.00329742 0.00330979 0.00332215 0.00333451 0.00334687 0.00335933 0.00337179 0.00338425 0.00339671
0.00340917 0.00342172 0.00343428 0.00344683 0.00345939 0.00347194 0.00348459 0.00349724 0.00350989 0.00352255
0.0035352 0.00354795 0.00356069 0.00357344 0.00358619 0.00359894 0.00361179 0.00362463 0.00363748 0.00365033
0.00366317 0.00367557 0.00368796 0.00370035 0.00371274 0.00372506 0.00372563 0.0037262 0.00372676 0.00372733
0.0037279 0.00374095 0.00375399 0.00376704 0.00378009 0.00379313 0.00380628 0.00381942 0.00383257 0.00384571
0.00385886 0.00387211 0.00388535 0.0038986 0.00391185 0.0039251 0.00393844 0.00395179 0.00396514 0.00397849
0.00399184 0.00400529 0.00401875 0.0040322 0.00404565 0.0040591 0.00407266 0.00408621 0.00409977 0.00411332
0.00412688 0.00414054 0.0041542 0.00416786 0.00418152 0.00419518 0.00420894 0.00422271 0.00423647 0.00425024
0.004264 0.00427787 0.00429174 0.00430562 0.00431949 0.00433336 0.00434734 0.00436131 0.00437529 0.00438927
0.00440325 0.00441733 0.00443142 0.00444551 0.00445959 0.00447368 0.00448787 0.00450207 0.00451626 0.00453045
0.00454465 0.00455895 0.00457326 0.00458756 0.00460186 0.00461617 0.00463059 0.004645 0.00465941 0.00467383
0.00468824 0.00470277 0.0047173 0.00473182 0.00474635 0.00476087 0.00477551 0.00479015 0.00480479 0.00481943
0.00483407 0.00484882 0.00486357 0.00487832 0.00489307 0.00490783 0.0049227 0.00493756 0.00495243 0.00496729
0.00498216 0.00499714 0.00501213 0.00502711 0.00504209 0.00505707 0.00507217 0.00508727 0.00510237 0.00511747
0.00513257 0.00514778 0.005163 0.00517822 0.00519343 0.00520865 0.00522399 0.00523932 0.00525466 0.00526999
0.00528533 0.00530079 0.00531624 0.0053317 0.00534716 0.00536261 0.00537819 0.00539377 0.00540935 0.00542492
0.0054405 0.0054562 0.0054719 0.0054876 0.0055033 0.005519 0.00553483 0.00555065 0.00556648 0.0055823
0.00559813 0.00561408 0.00563003 0.00564598 0.00566193 0.00567788 0.00569396 0.00571004 0.00572612 0.00574219
0.00575827 0.00576601 0.00577374 0.00578148 0.00578922 0.00579687 0.00580536 0.00581384 0.00582233 0.00583082
0.00583931 0.00585564 0.00587198 0.00588831 0.00590465 0.00592099 0.00593746 0.00595393 0.0059704 0.00598687
0.00600334 0.00601995 0.00603655 0.00605315 0.00606975 0.00608636 0.00610311 0.00611984 0.00613658 0.00615332
0.00617006 0.00618695 0.00620382 0.0062207 0.00623757 0.00625445 0.00627148 0.0062885 0.00630551 0.00632253
0.00633955 0.00635673 0.00637389 0.00639105 0.0064082 0.00642537 0.0064427 0.00646001 0.00647731 0.00649461
0.00651192 0.0065294 0.00654686 0.0065643 0.00658175 0.00659922 0.00661685 0.00663446 0.00665205 0.00666965
0.00668727 0.00670506 0.00672283 0.00674058 0.00675833 0.00677611 0.00679405 0.00681198 0.00682989 0.0068478
0.00686574 0.00688384 0.00690193 0.00692 0.00693807 0.00695617 0.00697444 0.00699269 0.00701093 0.00702917
0.00704743 0.00706587 0.00708429 0.0071027 0.00712111 0.00713955 0.00715816 0.00717675 0.00719533 0.00721392
0.00723253 0.00725131 0.00727008 0.00728884 0.00730761 0.0073264 0.00734536 0.0073643 0.00738325 0.00740221
0.00742117 0.00744032 0.00745945 0.00747859 0.00749773 0.00751689 0.00753622 0.00755554 0.00757487 0.00759421
0.00761356 0.00762211 0.00763066 0.00763921 0.00764776 0.00765615 0.00766716 0.00767817 0.00768918 0.0077002
0.00771122 0.00773094 0.00775066 0.00777039 0.00779013 0.00780988 0.00782981 0.00784974 0.00786968 0.00788962
0.00790958 0.00792974 0.00794988 0.00797002 0.00799018 0.00801035 0.00803074 0.0080511 0.00807146 0.00809183
0.00811223 0.00813285 0.00815344 0.00817402 0.00819462 0.00821525 0.00823611 0.00825693 0.00827774 0.00829856
0.00831943 0.00834053 0.0083616 0.00838264 0.0084037 0.00842482 0.00844616 0.00846748 0.00848877 0.00851008
0.00853145 0.00855304 0.00857461 0.00859616 0.00861772 0.00863934 0.00866119 0.00868302 0.00870484 0.00872668
0.00874856 0.00877067 0.00879276 0.00881486 0.00883697 0.00885912 0.0088815 0.00890386 0.00892624 0.00894864
0.00897107 0.00899372 0.00901637 0.00903904 0.00906174 0.00908446 0.00910108 0.00911771 0.00913435 0.009151
0.00916705 0.00917351 0.00917996 0.00918642 0.00919288 0.00919934 0.00922256 0.00924581 0.00926908 0.00929238
0.00931571 0.00933926 0.00936281 0.0093864 0.00941001 0.00943365 0.00945753 0.00948141 0.00950531 0.00952924
0.00955321 0.00957742 0.00960164 0.00962587 0.00965013 0.00967443 0.00969899 0.00972355 0.00974811 0.00977271
0.00979737 0.00982227 0.00984718 0.0098721 0.00989705 0.00992206 0.00994733 0.0099726 0.00999788 0.0100232