/*--------------------------------*- C++ -*----------------------------------*\
  =========                 |
  \\      /  F ield         | OpenFOAM: The Open Source CFD Toolbox
   \\    /   O peration     | Website:  https://openfoam.org
    \\  /    A nd           | Version:  13
     \\/     M anipulation  |
\*---------------------------------------------------------------------------*/
FoamFile
{
    format      ascii;
    class       volScalarField;
    location    "200";
    object      epsilon;
}
// * * * * * * * * * * * * * * * * * * * * * * * * * * * * * * * * * * * * * //

dimensions      [0 2 -3 0 0 0 0];

internalField   nonuniform List<scalar> 
12225
(
279.469
251.114
228.648
209.12
193.75
180.155
169.794
160.864
154.447
149.004
145.965
143.576
143.579
144.368
145.946
149.307
153.615
160.581
41.6824
61.3762
70.3207
75.1018
77.9809
80.7872
83.1501
87.1305
90.7786
97.0281
102.707
112.049
120.195
132.889
143.643
159.717
173.362
192.466
19.0203
26.3239
31.3995
35.1766
37.7396
40.157
41.765
43.9995
45.4878
48.1606
49.9787
53.4846
55.9311
60.7466
63.9206
70.0082
73.6803
80.9396
15.5197
17.7719
20.0946
22.1741
23.7095
25.2246
26.2338
27.486
28.2512
29.4794
30.2039
31.5589
32.3753
33.9798
34.9597
36.8857
38.0191
40.2902
14.9306
15.3466
16.2408
17.2353
18.0468
18.9088
19.5171
20.234
20.694
21.3342
21.72
22.3449
22.7091
23.3669
23.7428
24.4634
24.8744
25.6982
14.7678
14.7747
14.9564
15.2759
15.627
16.0449
16.3646
16.7467
17.0119
17.3514
17.5734
17.8855
18.0794
18.3836
18.5643
18.8748
19.051
19.4039
14.7593
14.6194
14.5609
14.5775
14.6459
14.7649
14.882
15.0394
15.1577
15.3121
15.4196
15.5651
15.6611
15.7999
15.8863
16.0233
16.1027
16.2612
14.7642
14.596
14.4534
14.3534
14.2823
14.249
14.2372
14.2442
14.2583
14.2881
14.3097
14.3507
14.3755
14.4193
14.4445
14.4888
14.5172
14.5695
14.7657
14.5952
14.4348
14.2949
14.1707
14.0687
13.9826
13.9156
13.8569
13.8149
13.7746
13.7485
13.7202
13.7044
13.6835
13.6742
13.6579
13.6634
14.7657
14.5952
14.4331
14.2832
14.1431
14.0164
13.8998
13.7971
13.7023
13.6203
13.5434
13.478
13.4147
13.3626
13.3089
13.2685
13.2194
13.192
14.7657
14.5948
14.4329
14.2811
14.1374
14.0036
13.8775
13.7612
13.6516
13.5516
13.457
13.3714
13.2894
13.2166
13.1448
13.0832
13.019
12.9677
14.7657
14.5944
14.4325
14.2803
14.1361
14.0007
13.8723
13.7521
13.6382
13.532
13.4311
13.3375
13.2481
13.1659
13.0864
13.0144
12.9432
12.8803
14.7657
14.5942
14.4322
14.2797
14.1355
13.9995
13.8706
13.7492
13.634
13.5255
13.4224
13.3255
13.2331
13.1466
13.0638
12.9866
12.9122
12.8433
14.7657
14.594
14.432
14.2792
14.1349
13.9986
13.8696
13.7478
13.6322
13.5229
13.4192
13.3211
13.2278
13.1395
13.0555
12.976
12.9002
12.8286
14.7657
14.5938
14.4318
14.2789
14.1344
13.998
13.8689
13.7468
13.6311
13.5215
13.4176
13.319
13.2254
13.1366
13.0522
12.972
12.8957
12.8232
14.7657
14.5938
14.4316
14.2786
14.134
13.9974
13.8683
13.746
13.6302
13.5205
13.4164
13.3177
13.224
13.135
13.0504
12.97
12.8934
12.8207
14.7657
14.5937
14.4315
14.2784
14.1338
13.9971
13.8678
13.7454
13.6295
13.5197
13.4155
13.3167
13.2228
13.1337
13.049
12.9685
12.8919
12.819
14.7657
14.5937
14.4314
14.2782
14.1336
13.9968
13.8675
13.745
13.6291
13.5191
13.4149
13.316
13.2221
13.1329
13.0481
12.9675
12.8908
12.8178
14.7657
14.5937
14.4314
14.2782
14.1335
13.9968
13.8674
13.7449
13.6289
13.5189
13.4146
13.3157
13.2217
13.1325
13.0476
12.967
12.8903
12.8173
14.7657
14.5937
14.4315
14.2783
14.1337
13.9969
13.8676
13.7451
13.6291
13.5192
13.4149
13.316
13.222
13.1328
13.048
12.9673
12.8906
12.8176
14.7657
14.5937
14.4316
14.2785
14.134
13.9973
13.868
13.7456
13.6297
13.5198
13.4157
13.3168
13.223
13.1339
13.0493
12.9688
12.8924
12.8196
14.7657
14.5938
14.4318
14.2789
14.1344
13.9979
13.8689
13.7468
13.6314
13.5221
13.4187
13.3207
13.228
13.14
13.0568
12.9777
12.903
12.8317
14.7658
14.594
14.4322
14.2795
14.1358
14.0004
13.8734
13.754
13.6423
13.5372
13.4391
13.3467
13.2606
13.1791
13.1035
13.0313
12.9649
12.9006
14.7664
14.5939
14.4333
14.2841
14.1474
14.0227
13.9104
13.8087
13.7176
13.6349
13.5607
13.4927
13.432
13.375
13.3249
13.2759
13.2348
13.1913
14.7677
14.5936
14.4525
14.3365
14.2487
14.1843
14.1405
14.1102
14.0919
14.0802
14.0748
14.0729
14.0736
14.0757
14.0797
14.0823
14.0912
14.0899
14.7721
14.6446
14.659
14.7087
14.8253
14.9653
15.1172
15.2636
15.4081
15.5385
15.6661
15.7766
15.8881
15.9805
16.0811
16.1587
16.2542
16.3192
14.9069
15.179
15.8196
16.4935
17.137
17.7082
18.2202
18.6595
19.0562
19.3963
19.7157
19.9904
20.2661
20.5004
20.756
20.9664
21.2199
21.4174
15.8997
18.7497
21.1914
23.1145
24.6492
25.8508
26.8452
27.6492
28.3638
28.9769
29.5718
30.114
30.6854
31.2171
31.8195
32.3743
33.0392
33.6316
26.91
37.6454
43.4405
46.8291
49.0132
50.4653
51.5828
52.4776
53.3575
54.22
55.185
56.2281
57.4185
58.6991
60.1666
61.7043
63.458
65.2339
164.53
154.677
146.281
138.921
132.505
126.806
121.811
117.38
113.485
110.082
107.062
104.523
102.234
100.365
98.6985
97.3854
96.25
95.3939
0.389934
0.425985
0.774577
1.13896
1.53253
1.95665
2.40498
2.86646
3.33078
3.79068
4.24027
4.67389
5.08659
5.47635
5.84365
6.19055
6.51881
6.82913
7.12022
7.38864
7.62864
7.83405
7.99906
8.11902
8.18398
8.20117
8.18279
8.15665
8.13422
8.4206
8.69043
9.01012
9.18427
9.10513
9.33765
40.5564
41.4059
45.4145
48.0906
51.3458
54.6395
58.0714
61.664
65.3924
69.281
73.326
77.5336
81.9114
86.4586
91.1866
96.092
101.187
106.467
111.945
117.616
123.492
129.566
135.852
142.341
149.047
155.96
163.092
170.435
178.003
185.786
193.802
202.041
210.501
219.152
228.015
237.078
246.354
255.822
265.494
275.348
285.393
295.605
305.993
316.533
327.233
338.063
349.032
360.11
371.301
382.573
393.928
405.334
416.789
428.261
439.742
451.206
462.63
473.997
485.299
496.545
507.782
518.951
529.986
540.884
551.61
562.149
572.475
582.566
592.399
601.951
611.198
620.119
628.691
636.891
644.696
652.085
659.036
665.53
671.546
677.068
682.076
686.558
690.498
693.887
696.714
698.988
700.727
701.889
702.222
702.185
701.341
700.063
698.372
696.011
693.083
689.619
685.627
681.134
676.154
670.718
664.845
658.562
651.88
644.863
637.554
629.996
622.231
614.295
606.226
598.062
589.839
581.595
573.368
565.19
557.098
549.123
541.297
533.652
526.215
519.015
512.078
505.427
499.087
493.083
487.438
482.187
477.1
472.37
468.177
464.748
464.534
464.738
465.113
466.212
467.56
469.255
471.214
473.412
475.881
478.434
480.86
482.854
483.953
482.703
461.799
1.73886
1.03001
1.06873
1.25793
1.52983
1.85545
2.21658
2.59584
2.97861
3.35787
3.73262
4.10278
4.46541
4.81905
5.16433
5.5038
5.83985
6.17476
6.50959
6.84492
7.18034
7.51581
7.85082
8.19865
8.59273
9.05255
9.59778
10.2599
11.0535
12.0408
13.293
14.7601
16.5601
18.7139
21.0067
24.2616
25.3316
26.9841
28.4871
30.1105
31.7786
33.511
35.3078
37.1693
39.0982
41.0957
43.163
45.3024
47.514
49.8005
52.1617
54.6001
57.1151
59.7093
62.3821
65.1354
67.9683
70.8829
73.8779
76.9549
80.1122
83.3515
86.6713
90.0733
93.5553
97.1168
100.771
104.514
108.324
112.202
116.15
120.171
124.26
128.416
132.636
136.918
141.258
145.654
150.1
154.596
159.134
163.713
168.326
172.969
177.637
182.324
187.025
191.734
196.445
201.154
205.856
210.544
215.219
219.883
224.546
229.223
233.93
238.576
243.168
247.694
252.147
256.517
260.796
264.976
269.047
273.001
276.829
280.522
284.071
287.468
290.704
293.771
296.66
299.364
301.875
304.186
306.29
308.182
309.856
311.309
312.537
313.537
314.296
314.792
315.062
315.063
314.87
314.472
313.818
312.921
311.799
310.457
308.901
307.141
305.184
303.041
300.721
298.234
295.599
292.833
289.951
286.969
283.904
280.768
277.579
274.351
271.1
267.841
264.59
261.36
258.167
255.023
251.944
248.94
246.027
243.214
240.515
237.938
235.495
233.197
231.052
229.025
227.165
225.513
224.16
223.603
223.212
222.955
222.946
223.078
223.359
223.764
224.278
224.882
225.509
226.136
226.735
227.305
227.58
227.046
3.5442
1.7745
1.60576
1.69337
1.88827
2.15182
2.46164
2.79951
3.15154
3.50984
3.87143
4.23528
4.60001
4.96583
5.33465
5.71048
6.0965
6.49644
6.914
7.35331
7.81899
8.31777
8.85964
9.45098
10.0878
10.7792
11.538
12.3714
13.2845
14.297
15.4188
16.6265
17.9279
19.2976
20.6971
22.0806
23.2864
24.5684
25.8771
27.2368
28.6431
30.0991
31.6057
33.1644
34.7761
36.4422
38.1635
39.9414
41.7764
43.6699
45.6223
47.6348
49.7078
51.8423
54.0386
56.2976
58.6194
61.0046
63.4533
65.966
68.5425
71.1834
73.8883
76.6575
79.4902
82.3858
85.3457
88.3693
91.4518
94.5921
97.7894
101.043
104.352
107.715
111.129
114.592
118.103
121.659
125.257
128.895
132.569
136.276
140.013
143.777
147.564
151.369
155.189
159.02
162.858
166.7
170.543
174.383
178.218
182.047
185.87
189.688
193.488
197.247
200.963
204.629
208.237
211.782
215.255
218.652
221.963
225.183
228.304
231.319
234.222
237.005
239.661
242.183
244.565
246.8
248.882
250.805
252.564
254.153
255.568
256.804
257.858
258.727
259.405
259.89
260.16
260.239
260.164
259.897
259.437
258.787
257.955
256.946
255.766
254.421
252.917
251.263
249.466
247.537
245.487
243.329
241.074
238.736
236.326
233.856
231.338
228.785
226.21
223.623
221.037
218.465
215.916
213.402
210.935
208.524
206.179
203.91
201.725
199.633
197.642
195.762
193.998
192.342
190.809
189.42
188.221
187.356
186.648
186.062
185.622
185.293
185.065
184.925
184.875
184.885
184.866
184.845
184.907
185.072
185.339
186.268
5.30507
2.51813
2.1572
2.16385
2.31019
2.5333
2.80735
3.11629
3.44865
3.79693
4.1569
4.5271
4.90768
5.29966
5.70474
6.12519
6.56471
7.02728
7.51663
8.03647
8.59007
9.18066
9.81064
10.481
11.1914
11.9435
12.7398
13.583
14.4765
15.4252
16.43
17.486
18.589
19.7439
20.9031
22.0733
23.2521
24.47
25.7273
27.0282
28.3739
29.7659
31.2054
32.6938
34.2319
35.8211
37.4624
39.1568
40.9051
42.7083
44.5672
46.4829
48.4558
50.487
52.577
54.7266
56.9363
59.2065
61.5378
63.9306
66.385
68.9016
71.4803
74.1211
76.8236
79.5874
82.4121
85.2975
88.2427
91.2465
94.3079
97.4257
100.599
103.826
107.105
110.434
113.812
117.236
120.703
124.212
127.759
131.342
134.956
138.6
142.27
145.961
149.671
153.396
157.131
160.874
164.621
168.369
172.113
175.851
179.581
183.296
186.985
190.639
194.252
197.816
201.327
204.777
208.159
211.467
214.695
217.834
220.879
223.822
226.657
229.377
231.975
234.444
236.778
238.971
241.016
242.908
244.64
246.209
247.609
248.835
249.885
250.754
251.441
251.942
252.234
252.34
252.293
252.055
251.632
251.029
250.249
249.298
248.181
246.903
245.471
243.893
242.177
240.331
238.368
236.297
234.13
231.878
229.553
227.168
224.732
222.258
219.758
217.242
214.723
212.211
209.717
207.251
204.824
202.445
200.123
197.867
195.685
193.584
191.573
189.659
187.846
186.133
184.524
183.032
181.68
180.523
179.502
178.593
177.793
177.087
176.463
175.915
175.415
174.946
174.486
174.054
173.699
173.495
173.582
174.283
6.92093
3.21746
2.67008
2.60623
2.70837
2.89926
3.14743
3.43651
3.75601
4.099
4.46117
4.84036
5.23591
5.64833
6.07897
6.52994
7.00383
7.50356
8.03178
8.59098
9.18306
9.80941
10.4706
11.1664
11.8963
12.6601
13.4585
14.2935
15.1683
16.0847
17.0428
18.0403
19.0734
20.1436
21.2496
22.3872
23.558
24.7686
26.0211
27.3172
28.6583
30.0458
31.4809
32.965
34.4991
36.0848
37.7233
39.4159
41.1631
42.9661
44.8259
46.7436
48.7201
50.7565
52.8536
55.0123
57.2335
59.5178
61.866
64.2787
66.7565
69.2997
71.9088
74.5839
77.3248
80.1313
83.0032
85.9407
88.9435
92.0106
95.1411
98.3338
101.588
104.902
108.274
111.702
115.185
118.721
122.306
125.939
129.616
133.335
137.092
140.884
144.707
148.558
152.432
156.325
160.234
164.155
168.082
172.012
175.94
179.859
183.765
187.65
191.508
195.33
199.11
202.841
206.516
210.129
213.672
217.139
220.522
223.814
227.007
230.095
233.071
235.927
238.656
241.252
243.707
246.015
248.169
250.164
251.993
253.651
255.133
256.435
257.552
258.481
259.219
259.765
260.098
260.229
260.195
259.964
259.54
258.929
258.134
257.159
256.01
254.693
253.215
251.582
249.804
247.89
245.849
243.693
241.434
239.082
236.65
234.15
231.592
228.99
226.355
223.698
221.03
218.364
215.71
213.078
210.478
207.92
205.414
202.966
200.585
198.279
196.054
193.916
191.871
189.92
188.063
186.306
184.663
183.157
181.769
180.48
179.283
178.17
177.131
176.16
175.236
174.347
173.488
172.675
171.948
171.402
171.148
171.389
8.36613
3.8502
3.12991
3.00168
3.06493
3.22903
3.45661
3.72985
4.03835
4.37546
4.73684
5.11995
5.52358
5.9476
6.39266
6.86008
7.35153
7.86888
8.41393
8.98833
9.59333
10.2299
10.8983
11.5989
12.3316
13.0965
13.8945
14.7273
15.5965
16.5038
17.4494
18.4331
19.4543
20.5136
21.6112
22.7475
23.9238
25.1426
26.4053
27.7135
29.0685
30.4717
31.9243
33.4279
34.9838
36.5932
38.2574
39.9778
41.7559
43.5933
45.4912
47.451
49.4741
51.5617
53.715
55.9354
58.2239
60.5816
63.0096
65.5088
68.0801
70.7242
73.4418
76.2331
79.0985
82.0381
85.0521
88.1406
91.3034
94.5401
97.8497
101.231
104.684
108.206
111.795
115.451
119.171
122.952
126.792
130.689
134.638
138.637
142.682
146.769
150.894
155.053
159.241
163.453
167.686
171.933
176.19
180.45
184.708
188.957
193.191
197.402
201.583
205.726
209.824
213.871
217.857
221.776
225.62
229.381
233.052
236.624
240.089
243.441
246.671
249.771
252.735
255.554
258.221
260.729
263.072
265.242
267.233
269.04
270.657
272.078
273.3
274.319
275.132
275.737
276.118
276.276
276.249
276.011
275.565
274.916
274.068
273.026
271.796
270.382
268.792
267.034
265.117
263.05
260.844
258.51
256.06
253.506
250.86
248.134
245.342
242.495
239.606
236.686
233.749
230.805
227.866
224.943
222.046
219.184
216.367
213.603
210.899
208.263
205.703
203.223
200.828
198.522
196.304
194.177
192.149
190.23
188.415
186.692
185.054
183.495
182.007
180.583
179.211
177.885
176.607
175.393
174.281
173.361
172.688
172.387
9.62069
4.40704
3.531
3.34352
3.37172
3.51216
3.72171
3.9806
4.27795
4.60712
4.96378
5.34521
5.74985
6.1771
6.62705
7.10037
7.59804
8.12131
8.67141
9.2496
9.85693
10.4943
11.1625
11.8621
12.5935
13.3575
14.1551
14.9875
15.8561
16.762
17.7061
18.6888
19.7107
20.7727
21.8755
23.0203
24.2085
25.4418
26.7216
28.0495
29.4269
30.8554
32.3366
33.872
35.4632
37.1119
38.8198
40.5885
42.4198
44.3155
46.2774
48.307
50.4062
52.5767
54.82
57.1379
59.5318
62.0033
64.5538
67.1846
69.8969
72.6919
75.5706
78.5336
81.5816
84.7151
87.9345
91.24
94.6317
98.1092
101.672
105.318
109.048
112.86
116.751
120.72
124.765
128.882
133.07
137.324
141.642
146.019
150.451
154.934
159.463
164.033
168.639
173.274
177.934
182.612
187.303
191.998
196.692
201.376
206.043
210.685
215.295
219.863
224.381
228.842
233.236
237.555
241.791
245.935
249.978
253.912
257.727
261.416
264.971
268.382
271.641
274.741
277.674
280.431
283.006
285.392
287.581
289.568
291.345
292.908
294.252
295.374
296.269
296.937
297.361
297.541
297.511
297.25
296.762
296.051
295.12
293.977
292.625
291.071
289.323
287.389
285.278
283
280.566
277.988
275.279
272.45
269.516
266.489
263.382
260.209
256.983
253.716
250.422
247.112
243.799
240.494
237.207
233.949
230.728
227.554
224.434
221.375
218.386
215.471
212.637
209.885
207.217
204.636
202.145
199.749
197.449
195.237
193.108
191.059
189.083
187.176
185.332
183.547
181.828
180.195
178.68
177.36
176.252
175.4
10.6791
4.888
3.87313
3.63026
3.62635
3.74445
3.93694
4.18175
4.46722
4.78648
5.13514
5.51042
5.9106
6.3348
6.78278
7.25481
7.75148
8.27365
8.82223
9.39828
10.0028
10.6369
11.3014
11.9974
12.7255
13.487
14.2827
15.114
15.982
16.888
17.8329
18.8178
19.8437
20.9117
22.023
23.179
24.3813
25.6314
26.931
28.2819
29.6858
31.1447
32.6603
34.2346
35.8695
37.567
39.3292
41.1581
43.0559
45.0248
47.0669
49.1844
51.3796
53.6545
56.0113
58.4521
60.9789
63.5938
66.2986
69.0952
71.9851
74.9699
78.0511
81.2297
84.5067
87.8831
91.3594
94.936
98.6132
102.391
106.268
110.243
114.317
118.486
122.75
127.106
131.55
136.082
140.695
145.388
150.156
154.994
159.898
164.862
169.88
174.947
180.057
185.201
190.375
195.571
200.78
205.996
211.21
216.413
221.597
226.751
231.869
236.939
241.952
246.9
251.772
256.559
261.251
265.838
270.312
274.661
278.878
282.952
286.874
290.635
294.227
297.641
300.867
303.9
306.729
309.348
311.749
313.926
315.871
317.58
319.047
320.268
321.239
321.958
322.412
322.601
322.549
322.244
321.688
320.886
319.842
318.563
317.053
315.32
313.372
311.217
308.865
306.327
303.614
300.738
297.714
294.554
291.271
287.881
284.397
280.833
277.203
273.521
269.8
266.054
262.294
258.533
254.782
251.052
247.351
243.69
240.077
236.519
233.024
229.599
226.248
222.977
219.786
216.678
213.656
210.724
207.884
205.131
202.465
199.882
197.38
194.958
192.612
190.344
188.162
186.087
184.148
182.409
180.856
179.489
11.5518
5.29267
4.15673
3.86061
3.82831
3.92535
4.10126
4.3319
4.60476
4.91261
5.25099
5.61706
6.00902
6.42588
6.86724
7.33324
7.82429
8.3411
8.88392
9.45389
10.0522
10.6799
11.3381
12.0281
12.7509
13.5076
14.2995
15.1279
15.994
16.8991
17.8446
18.8318
19.862
20.9366
22.0572
23.2253
24.4426
25.7108
27.0314
28.4073
29.8406
31.3336
32.8884
34.5073
36.1927
37.947
39.7727
41.6724
43.6487
45.7042
47.8417
50.0639
52.3734
54.7731
57.2656
59.8536
62.5397
65.3264
68.2162
71.2113
74.3139
77.5262
80.8497
84.2863
87.8372
91.5036
95.2863
99.186
103.203
107.337
111.587
115.953
120.434
125.026
129.73
134.54
139.455
144.472
149.585
154.79
160.083
165.459
170.91
176.431
182.016
187.656
193.346
199.076
204.838
210.625
216.427
222.234
228.038
233.828
239.595
245.326
251.013
256.645
262.21
267.698
273.099
278.4
283.592
288.664
293.604
298.403
303.049
307.534
311.846
315.976
319.915
323.653
327.181
330.492
333.576
336.426
339.034
341.393
343.496
345.337
346.91
348.212
349.238
349.986
350.443
350.615
350.513
350.132
349.476
348.548
347.356
345.902
344.196
342.243
340.053
337.634
334.997
332.152
329.113
325.893
322.504
318.961
315.28
311.474
307.558
303.548
299.459
295.304
291.098
286.855
282.588
278.31
274.033
269.767
265.524
261.313
257.142
253.021
248.956
244.956
241.026
237.172
233.396
229.701
226.091
222.57
219.14
215.801
212.554
209.399
206.336
203.367
200.492
197.716
195.05
192.512
190.129
187.953
185.951
184.099
12.2473
5.62289
4.38375
4.03949
3.98057
4.0575
4.2171
4.43344
4.69314
4.98861
5.31524
5.67019
6.05163
6.45815
6.88955
7.34608
7.82833
8.33738
8.8728
9.43558
10.0267
10.6474
11.2987
11.982
12.6985
13.4496
14.2365
15.0607
15.9236
16.8268
17.7718
18.7601
19.7935
20.8736
22.0022
23.1814
24.4131
25.6995
27.043
28.4471
29.9134
31.4451
33.0448
34.7154
36.4597
38.2805
40.181
42.1641
44.2331
46.3913
48.6419
50.9883
53.4339
55.9819
58.6358
61.3989
64.2743
67.2652
70.3746
73.6055
76.9604
80.442
84.0525
87.7938
91.6678
95.6758
99.8189
104.098
108.513
113.064
117.75
122.571
127.524
132.607
137.819
143.155
148.611
154.185
159.87
165.661
171.552
177.537
183.609
189.76
195.982
202.266
208.604
214.987
221.404
227.846
234.302
240.761
247.213
253.645
260.045
266.403
272.705
278.941
285.096
291.16
297.12
302.964
308.68
314.255
319.678
324.938
330.023
334.921
339.623
344.118
348.396
352.448
356.264
359.835
363.154
366.212
369
371.513
373.743
375.684
377.33
378.677
379.72
380.458
380.881
380.995
380.803
380.304
379.505
378.41
377.024
375.354
373.406
371.19
368.713
365.986
363.019
359.824
356.414
352.803
349.005
345.034
340.907
336.639
332.245
327.741
323.143
318.466
313.725
308.935
304.11
299.264
294.409
289.556
284.717
279.903
275.122
270.384
265.698
261.07
256.509
252.02
247.608
243.277
239.031
234.876
230.815
226.851
222.987
219.227
215.573
212.03
208.602
205.297
202.126
199.107
196.265
193.64
191.186
188.871
12.7744
5.88388
4.55882
4.17187
4.08798
4.14566
4.28922
4.49118
4.7374
5.01995
5.33378
5.6765
6.04703
6.44361
6.8655
7.31257
7.78497
8.28289
8.80677
9.35797
9.93772
10.5473
11.188
11.8612
12.5684
13.311
14.0907
14.9091
15.768
16.669
17.6141
18.6051
19.6442
20.7333
21.8748
23.0709
24.3239
25.6362
27.0092
28.446
29.9515
31.5297
33.1838
34.9171
36.7331
38.635
40.6266
42.7115
44.8936
47.1768
49.5652
52.0627
54.6735
57.4016
60.251
63.2257
66.3297
69.5667
72.9403
76.454
80.111
83.9142
87.8664
91.9699
96.2267
100.638
105.206
109.93
114.811
119.849
125.042
130.39
135.889
141.538
147.332
153.269
159.342
165.548
171.879
178.33
184.892
191.559
198.321
205.17
212.095
219.088
226.137
233.23
240.358
247.508
254.667
261.824
268.966
276.078
283.148
290.162
297.106
303.967
310.731
317.384
323.913
330.304
336.543
342.619
348.516
354.225
359.731
365.023
370.09
374.921
379.506
383.836
387.9
391.691
395.2
398.418
401.339
403.956
406.261
408.249
409.914
411.252
412.259
412.932
413.267
413.265
412.93
412.259
411.263
409.947
408.317
406.379
404.141
401.612
398.801
395.719
392.376
388.785
384.96
380.914
376.663
372.223
367.608
362.836
357.922
352.883
347.735
342.494
337.177
331.799
326.375
320.918
315.443
309.961
304.485
299.026
293.593
288.197
282.847
277.551
272.317
267.154
262.067
257.061
252.143
247.318
242.592
237.973
233.464
229.072
224.803
220.665
216.664
212.812
209.12
205.608
202.293
199.212
196.308
193.55
13.1359
6.07711
4.68571
4.26262
4.15597
4.19557
4.32357
4.51128
4.74408
5.01457
5.31721
5.64858
6.00632
6.38882
6.79644
7.2293
7.68766
8.17209
8.68359
9.22315
9.7918
10.3908
11.0217
11.6858
12.3849
13.1208
13.8951
14.71
15.5673
16.4692
17.4178
18.4156
19.4649
20.5683
21.7283
22.9477
24.2297
25.5767
26.991
28.4751
30.0336
31.673
33.3977
35.2126
37.1216
39.1284
41.2374
43.4529
45.7796
48.2223
50.7855
53.4743
56.2934
59.2477
62.3419
65.5806
68.9685
72.51
76.2092
80.0701
84.0964
88.2913
92.6577
97.1982
101.915
106.809
111.882
117.134
122.564
128.173
133.958
139.918
146.049
152.347
158.808
165.428
172.2
179.116
186.171
193.356
200.662
208.079
215.597
223.206
230.893
238.648
246.457
254.308
262.186
270.08
277.974
285.855
293.707
301.516
309.266
316.942
324.529
332.011
339.374
346.602
353.68
360.593
367.328
373.869
380.203
386.317
392.198
397.833
403.211
408.32
413.151
417.694
421.94
425.881
429.508
432.815
435.794
438.439
440.744
442.704
444.313
445.567
446.464
447
447.173
446.988
446.436
445.526
444.27
442.671
440.736
438.472
435.887
432.992
429.795
426.308
422.542
418.509
414.225
409.702
404.958
400.008
394.867
389.554
384.084
378.474
372.742
366.905
360.978
354.979
348.922
342.823
336.696
330.554
324.409
318.274
312.159
306.074
300.03
294.037
288.102
282.236
276.445
270.737
265.12
259.601
254.189
248.891
243.717
238.675
233.775
229.027
224.441
220.03
215.807
211.792
207.999
204.459
201.112
197.931
13.3628
6.21358
4.771
4.31757
4.19051
4.21356
4.32698
4.50237
4.72315
4.9801
5.2677
5.58378
5.92672
6.29594
6.69081
7.11128
7.55766
8.0306
8.53099
9.05995
9.61871
10.2088
10.8317
11.4892
12.1833
12.9159
13.6894
14.5059
15.3678
16.2775
17.2379
18.2516
19.3221
20.4521
21.6441
22.9015
24.2273
25.6212
27.0905
28.6415
30.2797
32.0101
33.8379
35.7683
37.8071
39.9588
42.2286
44.6218
47.1438
49.8005
52.5973
55.5399
58.6338
61.8847
65.298
68.8789
72.6326
76.564
80.6776
84.9777
89.468
94.152
99.0324
104.112
109.391
114.872
120.555
126.44
132.525
138.809
145.289
151.961
158.822
165.867
173.088
180.481
188.036
195.746
203.601
211.591
219.706
227.934
236.263
244.68
253.172
261.724
270.323
278.953
287.598
296.245
304.876
313.477
322.029
330.517
338.923
347.232
355.425
363.487
371.401
379.151
386.72
394.093
401.255
408.19
414.884
421.323
427.494
433.384
438.982
444.277
449.258
453.916
458.244
462.233
465.878
469.17
472.105
474.677
476.881
478.712
480.167
481.242
481.935
482.244
482.169
481.708
480.852
479.627
478.035
476.081
473.773
471.118
468.124
464.804
461.166
457.221
452.983
448.463
443.675
438.636
433.36
427.864
422.165
416.279
410.223
404.015
397.672
391.212
384.651
378.007
371.296
364.533
357.733
350.909
344.076
337.245
330.428
323.636
316.881
310.171
303.519
296.933
290.423
283.997
277.667
271.44
265.328
259.341
253.492
247.791
242.251
236.886
231.709
226.734
221.978
217.458
213.188
209.194
205.412
201.832
13.3927
6.26494
4.80847
4.33803
4.19595
4.20649
4.30765
4.46854
4.67417
4.91676
5.19166
5.49565
5.82694
6.18465
6.56842
6.97831
7.41479
7.87863
8.37088
8.89283
9.44596
10.032
10.6528
11.3105
12.0071
12.7454
13.5279
14.358
15.238
16.1706
17.159
18.2066
19.3167
20.4884
21.7286
23.0426
24.4354
25.9129
27.4799
29.1425
30.9066
32.7784
34.7638
36.8697
39.1019
41.4666
43.9702
46.6193
49.4206
52.3808
55.5061
58.8029
62.2775
65.9358
69.7838
73.8271
78.071
82.5205
87.1801
92.0537
97.1447
102.456
107.99
113.747
119.729
125.935
132.365
139.016
145.886
152.972
160.27
167.773
175.475
183.371
191.451
199.706
208.128
216.705
225.426
234.28
243.252
252.329
261.498
270.743
280.05
289.401
298.781
308.173
317.559
326.924
336.249
345.517
354.71
363.809
372.798
381.657
390.369
398.917
407.282
415.448
423.398
431.116
438.586
445.793
452.721
459.357
465.687
471.7
477.383
482.727
487.721
492.358
496.63
500.532
504.057
507.201
509.959
512.328
514.303
515.881
517.06
517.839
518.215
518.186
517.759
516.904
515.659
514.027
512.014
509.625
506.869
503.751
500.283
496.475
492.339
487.886
483.126
478.074
472.744
467.15
461.31
455.239
448.953
442.47
435.807
428.981
422.009
414.91
407.7
400.398
393.02
385.581
378.098
370.584
363.054
355.52
347.994
340.488
333.014
325.583
318.208
310.897
303.664
296.518
289.471
282.534
275.72
269.044
262.52
256.161
249.985
244.005
238.24
232.707
227.422
222.404
217.665
213.229
209.03
205.081
13.3519
6.26606
4.81098
4.33264
4.18043
4.17826
4.26534
4.41378
4.60843
4.84064
5.10547
5.39998
5.72254
6.07239
6.4493
6.8533
7.28526
7.74617
8.23733
8.76038
9.31734
9.91084
10.5424
11.2144
11.9297
12.6913
13.5022
14.3649
15.2803
16.2544
17.292
18.3977
19.5764
20.8338
22.1746
23.6044
25.1294
26.7563
28.4915
30.342
32.315
34.4175
36.657
39.0414
41.5775
44.2731
47.1363
50.1753
53.3982
56.8125
60.4247
64.2414
68.2688
72.5128
76.9791
81.6728
86.5987
91.7608
97.1626
102.807
108.695
114.829
121.209
127.833
134.702
141.811
149.159
156.74
164.551
172.583
180.832
189.288
197.944
206.789
215.813
225.004
234.351
243.841
253.459
263.192
273.025
282.943
292.928
302.965
313.037
323.126
333.214
343.283
353.315
363.291
373.194
383.005
392.705
402.275
411.696
420.951
430.02
438.886
447.531
455.938
464.09
471.97
479.564
486.856
493.831
500.476
506.778
512.725
518.308
523.515
528.339
532.774
536.812
540.45
543.684
546.511
548.928
550.933
552.525
553.701
554.459
554.807
554.731
554.245
553.314
551.976
550.235
548.098
545.571
542.662
539.378
535.726
531.716
527.362
522.673
517.661
512.337
506.714
500.806
494.629
488.198
481.53
474.64
467.546
460.263
452.809
445.202
437.458
429.597
421.635
413.589
405.476
397.312
389.111
380.887
372.654
364.424
356.21
348.025
339.88
331.788
323.762
315.813
307.955
300.201
292.564
285.06
277.705
270.517
263.514
256.713
250.133
243.794
237.717
231.919
226.421
221.231
216.376
211.784
207.501
13.2153
6.24502
4.79458
4.30727
4.14317
4.13122
4.21003
4.35069
4.53814
4.76404
5.02363
5.31424
5.63463
5.9846
6.36388
6.77277
7.21235
7.68411
8.18979
8.73135
9.31068
9.92909
10.5892
11.2955
12.0521
12.8632
13.7332
14.6671
15.67
16.747
17.9037
19.1463
20.4816
21.9165
23.458
25.1136
26.8909
28.7983
30.8443
33.0375
35.3867
37.9003
40.5866
43.4531
46.5087
49.7632
53.2262
56.908
60.8203
64.9693
69.3597
73.9963
78.8837
84.0261
89.427
95.0895
101.016
107.207
113.663
120.385
127.369
134.615
142.118
149.875
157.88
166.126
174.608
183.317
192.245
201.383
210.719
220.244
229.946
239.812
249.829
259.984
270.262
280.648
291.128
301.684
312.302
322.964
333.653
344.351
355.041
365.705
376.325
386.881
397.355
407.73
417.986
428.105
438.069
447.859
457.457
466.845
476.005
484.918
493.569
501.941
510.018
517.784
525.226
532.327
539.075
545.458
551.463
557.082
562.303
567.12
571.524
575.51
579.076
582.218
584.935
587.226
589.09
590.529
591.541
592.129
592.283
592.036
591.34
590.21
588.662
586.703
584.339
581.578
578.429
574.899
570.996
566.726
562.099
557.128
551.824
546.198
540.26
534.023
527.501
520.708
513.66
506.371
498.858
491.136
483.222
475.131
466.881
458.49
449.975
441.353
432.642
423.858
415.017
406.135
397.225
388.3
379.375
370.462
361.574
352.726
343.93
335.2
326.549
317.994
309.547
301.226
293.048
285.033
277.201
269.572
262.17
255.012
248.122
241.526
235.236
229.27
223.645
218.389
213.426
208.848
12.9737
6.18016
4.7488
4.26164
4.0964
4.08354
4.16193
4.30362
4.49389
4.72444
4.99093
5.2911
5.62384
5.9886
6.38427
6.81327
7.27771
7.77999
8.32283
8.90943
9.54346
10.2296
10.9719
11.7753
12.6454
13.5884
14.611
15.7204
16.9243
18.2303
19.6468
21.1828
22.8473
24.6503
26.6017
28.712
30.9917
33.4514
36.1018
38.9537
42.0171
45.3017
48.8166
52.5705
56.5722
60.8307
65.3542
70.1516
75.2302
80.5983
86.2541
92.1972
98.4265
104.941
111.739
118.817
126.172
133.798
141.692
149.845
158.251
166.902
175.79
184.904
194.236
203.775
213.509
223.428
233.52
243.772
254.173
264.708
275.365
286.129
296.986
307.923
318.923
329.972
341.055
352.156
363.258
374.346
385.403
396.412
407.357
418.221
428.986
439.635
450.151
460.516
470.715
480.729
490.542
500.137
509.497
518.606
527.446
536.002
544.258
552.2
559.813
567.084
574
580.547
586.713
592.489
597.863
602.829
607.379
611.504
615.2
618.464
621.294
623.689
625.648
627.179
628.272
628.947
629.188
629.015
628.416
627.369
625.913
624.041
621.758
619.07
615.988
612.52
608.676
604.464
599.89
594.959
589.681
584.067
578.13
571.878
565.321
558.472
551.342
543.945
536.296
528.408
520.297
511.976
503.461
494.766
485.91
476.908
467.777
458.536
449.2
439.787
430.313
420.792
411.238
401.666
392.088
382.519
372.972
363.462
354.005
344.612
335.303
326.092
316.996
308.034
299.225
290.592
282.159
273.938
265.959
258.249
250.835
243.749
237.021
230.667
224.687
219.11
213.853
209.057
12.6859
6.07674
4.68354
4.21315
4.05879
4.0573
4.14808
4.30313
4.50607
4.75172
5.03698
5.36059
5.72255
6.12407
6.56693
7.05355
7.58732
8.17232
8.81329
9.51567
10.2857
11.1306
12.0576
13.075
14.1919
15.4184
16.765
18.2431
19.8646
21.6422
23.5891
25.7185
28.0439
30.5793
33.3383
36.3343
39.5802
43.0879
46.8687
50.9333
55.2907
59.9483
64.9114
70.1855
75.7755
81.6836
87.9114
94.4628
101.337
108.529
116.024
123.814
131.886
140.23
148.836
157.691
166.784
176.103
185.636
195.368
205.29
215.387
225.647
236.057
246.605
257.279
268.065
278.952
289.926
300.978
312.094
323.261
334.468
345.701
356.948
368.197
379.435
390.648
401.825
412.95
424.011
434.994
445.886
456.672
467.337
477.868
488.25
498.468
508.507
518.353
527.991
537.407
546.585
555.51
564.17
572.548
580.63
588.403
595.852
602.965
609.73
616.135
622.17
627.823
633.083
637.941
642.391
646.428
650.044
653.232
655.989
658.315
660.213
661.675
662.706
663.325
663.497
663.29
662.654
661.578
660.112