/*--------------------------------*- C++ -*----------------------------------*\
  =========                 |
  \\      /  F ield         | OpenFOAM: The Open Source CFD Toolbox
   \\    /   O peration     | Website:  https://openfoam.org
    \\  /    A nd           | Version:  13
     \\/     M anipulation  |
\*---------------------------------------------------------------------------*/
FoamFile
{
    format      ascii;
    class       volScalarField;
    location    "200";
    object      k;
}
// * * * * * * * * * * * * * * * * * * * * * * * * * * * * * * * * * * * * * //

dimensions      [0 2 -2 0 0 0 0];

internalField   nonuniform List<scalar> 
12225
(
0.355117
0.319095
0.290553
0.265735
0.246207
0.22893
0.215764
0.204417
0.19626
0.189348
0.185484
0.182448
0.182459
0.183232
0.18585
0.188945
0.19694
0.196414
0.371723
0.35956
0.348322
0.337639
0.331384
0.32643
0.326827
0.32897
0.334024
0.342902
0.354254
0.369779
0.38553
0.407384
0.426908
0.453986
0.476112
0.506358
0.373586
0.368442
0.362349
0.355495
0.350208
0.34484
0.341702
0.339079
0.338774
0.339396
0.341456
0.345329
0.349902
0.357782
0.363934
0.374427
0.381411
0.394074
0.373986
0.37073
0.367009
0.362442
0.358366
0.354021
0.350504
0.347136
0.344649
0.342651
0.341392
0.340786
0.340913
0.341546
0.342583
0.344764
0.346411
0.349664
0.373996
0.371452
0.368752
0.365492
0.362347
0.358999
0.355912
0.352867
0.350149
0.347683
0.345532
0.343701
0.342213
0.341102
0.340139
0.339671
0.339225
0.339243
0.373923
0.371634
0.369367
0.366818
0.364278
0.361617
0.359035
0.356465
0.354019
0.351687
0.349521
0.347498
0.345652
0.343997
0.342497
0.34119
0.34005
0.339033
0.373874
0.371634
0.369516
0.367318
0.365137
0.362911
0.360717
0.358532
0.356408
0.354338
0.352362
0.350465
0.348676
0.34698
0.345412
0.343912
0.342583
0.341251
0.37385
0.371605
0.369507
0.367447
0.365446
0.363464
0.361521
0.359604
0.357734
0.355903
0.354136
0.352419
0.350782
0.349193
0.347707
0.346248
0.344928
0.343584
0.373839
0.371584
0.369469
0.367446
0.365511
0.36364
0.361833
0.360073
0.358369
0.356708
0.355107
0.353546
0.352054
0.350597
0.349222
0.347867
0.346618
0.345352
0.373834
0.371573
0.369442
0.367418
0.365497
0.363663
0.361911
0.360226
0.35861
0.357049
0.355551
0.354099
0.352711
0.351361
0.35008
0.348824
0.34765
0.346476
0.37383
0.371566
0.369425
0.367395
0.365471
0.363642
0.361905
0.360246
0.358665
0.35715
0.355703
0.354311
0.352984
0.351702
0.350482
0.349297
0.348178
0.34708
0.373829
0.371561
0.369416
0.367381
0.365453
0.363621
0.361883
0.360229
0.358656
0.357155
0.355725
0.354357
0.353054
0.351803
0.350612
0.349465
0.348375
0.347319
0.373828
0.371558
0.369409
0.367371
0.365439
0.363604
0.361863
0.360207
0.358634
0.357136
0.355711
0.354351
0.353056
0.351819
0.35064
0.349511
0.348435
0.347403
0.373827
0.371556
0.369404
0.367363
0.365428
0.36359
0.361845
0.360187
0.358611
0.357111
0.355685
0.354326
0.353032
0.351798
0.350621
0.349499
0.348427
0.347405
0.373826
0.371554
0.3694
0.367357
0.365419
0.363579
0.361831
0.36017
0.358591
0.357089
0.355659
0.354298
0.353002
0.351767
0.350589
0.349467
0.348395
0.347373
0.373826
0.371552
0.369397
0.367352
0.365412
0.36357
0.36182
0.360157
0.358575
0.357071
0.355639
0.354276
0.352977
0.351739
0.350559
0.349435
0.348361
0.347337
0.373825
0.371551
0.369394
0.367349
0.365407
0.363563
0.361812
0.360147
0.358564
0.357057
0.355623
0.354258
0.352957
0.351718
0.350536
0.349409
0.348334
0.347308
0.373825
0.371551
0.369393
0.367347
0.365404
0.363559
0.361807
0.36014
0.358556
0.357048
0.355613
0.354246
0.352944
0.351703
0.35052
0.349391
0.348315
0.347288
0.373825
0.37155
0.369393
0.367346
0.365403
0.363558
0.361805
0.360138
0.358553
0.357045
0.355608
0.354241
0.352938
0.351696
0.350512
0.349383
0.348305
0.347278
0.373825
0.371551
0.369394
0.367348
0.365406
0.363561
0.361808
0.360142
0.358557
0.357049
0.355613
0.354245
0.352942
0.351701
0.350517
0.349388
0.34831
0.347282
0.373826
0.371552
0.369396
0.367352
0.36541
0.363567
0.361815
0.36015
0.358566
0.357059
0.355624
0.354257
0.352954
0.351713
0.350529
0.349399
0.348321
0.347293
0.373826
0.371554
0.3694
0.367358
0.365418
0.363577
0.361827
0.360164
0.358581
0.357074
0.355638
0.35427
0.352964
0.35172
0.350531
0.349396
0.348312
0.347276
0.373827
0.371558
0.369407
0.367368
0.365432
0.363593
0.361842
0.360176
0.358586
0.35707
0.35562
0.354234
0.352907
0.351639
0.350421
0.349258
0.348139
0.347072
0.373829
0.371564
0.369421
0.367386
0.365447
0.363595
0.36182
0.360118
0.358479
0.356904
0.355384
0.353924
0.352513
0.35116
0.349852
0.348601
0.347389
0.346237
0.373832
0.371582
0.369443
0.367385
0.365385
0.36344
0.361538
0.359686
0.357875
0.35612
0.354411
0.352763
0.351164
0.349632
0.348149
0.34674
0.345372
0.344089
0.373851
0.371611
0.369395
0.367151
0.364886
0.362619
0.360358
0.358141
0.355958
0.353858
0.351815
0.349873
0.348
0.346239
0.344556
0.342989
0.341495
0.340133
0.37392
0.371504
0.368848
0.365964
0.363009
0.360024
0.357079
0.354233
0.351494
0.348953
0.346531
0.344368
0.342329
0.34055
0.338895
0.337463
0.336207
0.33513
0.373947
0.37052
0.366461
0.362039
0.357706
0.353465
0.349605
0.34603
0.34291
0.340217
0.337913
0.336211
0.334721
0.333885
0.333178
0.333162
0.333319
0.333733
0.373087
0.365596
0.357832
0.350216
0.343609
0.33775
0.333295
0.329578
0.327424
0.325734
0.325748
0.326264
0.327349
0.329666
0.332283
0.335993
0.339815
0.34458
0.363251
0.341497
0.322962
0.306711
0.292546
0.279964
0.268935
0.259153
0.250554
0.243041
0.236372
0.230767
0.225712
0.221587
0.217908
0.215009
0.212502
0.210612
0.00133024
0.00664573
0.0120772
0.0177348
0.0238362
0.0304112
0.037367
0.0445457
0.0517949
0.0590195
0.0661329
0.0730554
0.0796976
0.086016
0.0919871
0.0976207
0.102916
0.107882
0.112505
0.116786
0.12071
0.124294
0.127542
0.130481
0.132595
0.134925
0.138593
0.140773
0.142723
0.145953
0.14749
0.148276
0.14786
0.1455
0.14399
0.141576
0.14936
0.156846
0.163152
0.170462
0.177542
0.184888
0.192355
0.199977
0.207755
0.215696
0.223791
0.232059
0.240482
0.249084
0.257842
0.266781
0.275877
0.285154
0.294587
0.304201
0.313969
0.323915
0.334011
0.34428
0.354694
0.365275
0.375994
0.386876
0.397895
0.409079
0.420403
0.431866
0.443415
0.455083
0.466843
0.478718
0.490671
0.502722
0.514832
0.527022
0.539251
0.551538
0.563846
0.57619
0.588531
0.600885
0.613211
0.625524
0.637782
0.649996
0.662126
0.674179
0.68612
0.697948
0.709639
0.721173
0.732533
0.743714
0.754727
0.765613
0.776365
0.786878
0.797166
0.807206
0.816981
0.826473
0.835668
0.84455
0.853099
0.861304
0.869147
0.876614
0.883688
0.890356
0.896603
0.902415
0.907778
0.912679
0.917107
0.92105
0.9245
0.927445
0.929882
0.931802
0.933213
0.934125
0.934498
0.934238
0.933526
0.932122
0.930278
0.928079
0.925343
0.922021
0.91823
0.91394
0.909191
0.903982
0.898345
0.892287
0.885833
0.878981
0.871792
0.864298
0.856534
0.848536
0.840333
0.83196
0.823447
0.814831
0.806139
0.797411
0.788674
0.779966
0.771314
0.762757
0.754319
0.746036
0.737932
0.73004
0.722382
0.714993
0.707897
0.701134
0.69459
0.688295
0.682509
0.677455
0.675172
0.674124
0.672606
0.671822
0.671448
0.671419
0.671743
0.672358
0.673309
0.674499
0.675769
0.677073
0.678133
0.678343
0.676564
0.65673
0.0059668
0.0205383
0.029792
0.0371384
0.0441805
0.0513975
0.0588454
0.0663676
0.0737983
0.0810968
0.0883172
0.0954902
0.102538
0.109381
0.115975
0.122315
0.128414
0.134293
0.139969
0.14547
0.150825
0.156086
0.161315
0.166611
0.172096
0.177979
0.18433
0.191004
0.197975
0.204709
0.211337
0.218517
0.226567
0.236866
0.246473
0.257427
0.270165
0.281817
0.293882
0.306213
0.318786
0.331639
0.344762
0.358173
0.371872
0.385874
0.400178
0.414796
0.429728
0.444985
0.460564
0.476476
0.492716
0.509295
0.526208
0.543462
0.561051
0.578983
0.597249
0.615856
0.634793
0.654063
0.673652
0.693558
0.713764
0.734272
0.75518
0.77651
0.798106
0.819921
0.841973
0.864298
0.886875
0.909702
0.932757
0.956033
0.979507
1.00317
1.02701
1.051
1.07512
1.09937
1.1237
1.14812
1.17259
1.1971
1.2216
1.24609
1.27053
1.2949
1.31918
1.34331
1.36726
1.39099
1.41446
1.43762
1.46042
1.48298
1.50525
1.52719
1.54878
1.56998
1.59076
1.61109
1.63093
1.65026
1.66903
1.68721
1.70478
1.72169
1.73791
1.75341
1.76815
1.78211
1.79525
1.80753
1.81894
1.82944
1.839
1.84761
1.85525
1.8619
1.86755
1.8722
1.87586
1.87817
1.87935
1.87985
1.87943
1.87779
1.87512
1.87143
1.86675
1.86111
1.85454
1.84706
1.83873
1.82958
1.81967
1.80905
1.79779
1.78595
1.7736
1.76079
1.74759
1.73407
1.7203
1.70633
1.69225
1.67812
1.66401
1.64998
1.63611
1.62245
1.60908
1.59606
1.58344
1.5713
1.55968
1.54865
1.53814
1.52822
1.51905
1.51068
1.50352
1.49697
1.49115
1.48625
1.48208
1.4786
1.4757
1.47326
1.47121
1.4694
1.46765
1.46574
1.46335
1.46041
1.45413
1.4313
0.0121951
0.0338041
0.0458264
0.0550059
0.0633128
0.0713984
0.0794798
0.0875742
0.0956301
0.103621
0.111553
0.119435
0.127245
0.13496
0.142569
0.150088
0.157547
0.164988
0.172455
0.180003
0.187688
0.19559
0.203805
0.212456
0.22165
0.231454
0.241841
0.252674
0.263717
0.275022
0.286807
0.299024
0.311988
0.325654
0.339645
0.354092
0.369007
0.384199
0.399682
0.415474
0.431591
0.448047
0.46485
0.482012
0.499538
0.517439
0.53572
0.554389
0.573451
0.592913
0.612777
0.633049
0.65373
0.674825
0.696334
0.71826
0.740602
0.763361
0.786534
0.810122
0.83412
0.858527
0.883337
0.908546
0.934143
0.96012
0.986492
1.01327
1.04041
1.06789
1.09568
1.12379
1.15221
1.18093
1.20992
1.23918
1.26868
1.29841
1.32834
1.35845
1.38873
1.41914
1.44967
1.48029
1.51097
1.54168
1.5724
1.6031
1.63374
1.6643
1.69475
1.72504
1.75515
1.78503
1.81466
1.84401
1.87305
1.90175
1.93009
1.95802
1.98551
2.01251
2.03899
2.0649
2.0902
2.11485
2.1388
2.16202
2.18446
2.20608
2.22683
2.24668
2.26558
2.28348
2.30035
2.31615
2.33085
2.34439
2.35676
2.36792
2.37785
2.38652
2.39392
2.40003
2.40485
2.40829
2.41018
2.41092
2.41056
2.40876
2.40565
2.40125
2.3956
2.38873
2.38067
2.37148
2.36119
2.34987
2.33757
2.32438
2.31035
2.29558
2.28013
2.2641
2.24755
2.23057
2.21325
2.19567
2.17791
2.16007
2.14222
2.12446
2.10685
2.0895
2.07246
2.05583
2.03967
2.02407
2.00909
1.99479
1.98118
1.96831
1.95625
1.94506
1.93485
1.92545
1.91694
1.90931
1.90247
1.89635
1.89085
1.88582
1.88116
1.87674
1.8724
1.86797
1.86324
1.85832
1.85112
1.83387
0.01828
0.0454138
0.0598383
0.0705018
0.0798155
0.0886229
0.0972713
0.105891
0.114513
0.123144
0.131785
0.140438
0.149101
0.157781
0.166491
0.175261
0.184132
0.193153
0.202377
0.21186
0.221657
0.231833
0.242455
0.253588
0.26528
0.277548
0.29036
0.303648
0.317333
0.331412
0.345926
0.360897
0.376394
0.392381
0.40878
0.425582
0.442789
0.460368
0.478304
0.496606
0.515289
0.534363
0.55384
0.573729
0.59404
0.614781
0.63596
0.657585
0.679662
0.702198
0.725198
0.748666
0.772606
0.797022
0.821915
0.847288
0.873142
0.899477
0.92629
0.953583
0.981351
1.00959
1.0383
1.06747
1.0971
1.12717
1.15769
1.18864
1.22002
1.25179
1.28396
1.3165
1.3494
1.38264
1.4162
1.45008
1.48423
1.51865
1.55331
1.58818
1.62325
1.65847
1.69384
1.7293
1.76484
1.80043
1.83603
1.87161
1.90713
1.94256
1.97788
2.01303
2.04799
2.08271
2.11716
2.1513
2.1851
2.21851
2.25149
2.284
2.31599
2.34742
2.37824
2.40841
2.43787
2.46658
2.49448
2.52154
2.5477
2.57291
2.59713
2.6203
2.64238
2.66331
2.68306
2.70157
2.7188
2.73472
2.74928
2.76244
2.77418
2.78447
2.79329
2.80061
2.80643
2.81073
2.81331
2.81435
2.81411
2.81227
2.80891
2.80406
2.79774
2.79
2.78088
2.77042
2.75869
2.74574
2.73165
2.71649
2.70034
2.6833
2.66544
2.64687
2.62767
2.60793
2.58776
2.56725
2.5465
2.5256
2.50465
2.48374
2.46297
2.44244
2.42223
2.40242
2.38311
2.36438
2.34629
2.32893
2.31233
2.29652
2.28154
2.26743
2.25426
2.24197
2.2306
2.22007
2.21032
2.20131
2.19292
2.18502
2.1775
2.17024
2.16313
2.15608
2.14901
2.14216
2.134
2.11965
0.0238674
0.0555106
0.0720577
0.0840918
0.0943802
0.103911
0.113137
0.122277
0.131431
0.140644
0.149934
0.159316
0.168798
0.178396
0.188135
0.198049
0.208178
0.218571
0.229274
0.240335
0.251798
0.263705
0.276095
0.289002
0.302444
0.316427
0.33093
0.345919
0.361362
0.377251
0.393591
0.410397
0.427678
0.445416
0.46359
0.482193
0.501218
0.520661
0.540519
0.560799
0.581512
0.602667
0.624275
0.646346
0.66889
0.691917
0.715435
0.739454
0.763981
0.789023
0.814586
0.840677
0.8673
0.89446
0.92216
0.950403
0.97919
1.00852
1.0384
1.06882
1.09979
1.1313
1.16334
1.19591
1.229
1.2626
1.2967
1.33131
1.3664
1.40196
1.43797
1.47441
1.51127
1.54853
1.58617
1.62417
1.6625
1.70113
1.74005
1.77922
1.81862
1.8582
1.89795
1.93783
1.9778
2.01784
2.05789
2.09793
2.13792
2.17782
2.21759
2.25719
2.29658
2.33572
2.37455
2.41305
2.45117
2.48884
2.52604
2.5627
2.59878
2.63423
2.669
2.70303
2.73627
2.76867
2.80018
2.83073
2.86029
2.88879
2.91618
2.9424
2.96741
2.99114
3.01356
3.0346
3.05423
3.07238
3.08902
3.10411
3.11761
3.12949
3.13972
3.14828
3.15516
3.16035
3.16371
3.16522
3.16525
3.16353
3.1601
3.15498
3.14821
3.13983
3.12988
3.11841
3.10549
3.09118
3.07555
3.05869
3.04069
3.02163
3.00162
2.98076
2.95913
2.93686
2.91404
2.89078
2.86718
2.84336
2.81942
2.79545
2.77158
2.74789
2.72448
2.70146
2.6789
2.6569
2.63554
2.61489
2.59501
2.57593
2.55768
2.54029
2.52381
2.50822
2.49353
2.47967
2.46659
2.45425
2.44254
2.43136
2.4206
2.41018
2.40003
2.39015
2.38056
2.37154
2.36193
2.34837
0.0288671
0.0641532
0.0825415
0.0958264
0.107053
0.117315
0.127142
0.136812
0.146476
0.156219
0.166086
0.176106
0.186298
0.196687
0.207296
0.21816
0.229316
0.240804
0.252664
0.264934
0.277646
0.290831
0.304509
0.318699
0.333411
0.348646
0.364394
0.380643
0.397378
0.414592
0.432281
0.450445
0.469083
0.48819
0.50776
0.527792
0.548285
0.569242
0.590666
0.612563
0.634943
0.657814
0.681189
0.705077
0.72949
0.754438
0.779932
0.805982
0.832595
0.859783
0.887551
0.915907
0.944859
0.974412
1.00457
1.03534
1.06672
1.09872
1.13133
1.16457
1.19841
1.23287
1.26794
1.30361
1.33987
1.37672
1.41415
1.45215
1.4907
1.5298
1.56942
1.60954
1.65015
1.69121
1.73272
1.77464
1.81695
1.85962
1.90262
1.94592
1.98948
2.03328
2.07726
2.1214
2.16566
2.21
2.25438
2.29875
2.34307
2.3873
2.4314
2.47531
2.519
2.5624
2.60548
2.64819
2.69046
2.73226
2.77352
2.81419
2.85421
2.89354
2.93211
2.96987
3.00676
3.04272
3.0777
3.11164
3.14448
3.17616
3.20663
3.23582
3.26368
3.29016
3.31519
3.33872
3.3607
3.38108
3.3998
3.41682
3.43211
3.44562
3.45733
3.4672
3.47521
3.48137
3.4856
3.48775
3.48817
3.4867
3.48334
3.47811
3.47104
3.46217
3.45155
3.43922
3.42526
3.40973
3.39272
3.37429
3.35456
3.3336
3.31154
3.28847
3.26449
3.23973
3.2143
3.1883
3.16185
3.13507
3.10807
3.08096
3.05386
3.02687
3.0001
2.97363
2.94758
2.92204
2.89708
2.8728
2.84925
2.82648
2.80452
2.7834
2.76314
2.74377
2.72528
2.70762
2.69075
2.67462
2.65917
2.64431
2.62995
2.61606
2.60261
2.58966
2.57729
2.56582
2.55427
2.54016
0.0332073
0.0714162
0.0913766
0.105773
0.117867
0.128833
0.139251
0.14944
0.159587
0.169807
0.180172
0.190726
0.201502
0.212527
0.223831
0.235443
0.247395
0.259722
0.272456
0.285627
0.299261
0.313379
0.327998
0.343129
0.358779
0.374949
0.391638
0.408839
0.426547
0.444757
0.463463
0.482666
0.502364
0.522557
0.543245
0.564432
0.586121
0.608318
0.631028
0.654261
0.678025
0.702331
0.727191
0.752617
0.778621
0.805214
0.832409
0.860218
0.888651
0.917719
0.947432
0.9778
1.00883
1.04053
1.07291
1.10597
1.13972
1.17417
1.20931
1.24514
1.28167
1.3189
1.35681
1.39541
1.43469
1.47464
1.51524
1.5565
1.5984
1.64091
1.68403
1.72772
1.77198
1.81677
1.86206
1.90784
1.95407
2.00071
2.04774
2.09512
2.1428
2.19076
2.23894
2.28731
2.33583
2.38444
2.4331
2.48177
2.53039
2.57892
2.6273
2.67549
2.72342
2.77106
2.81833
2.86518
2.91157
2.95742
3.00268
3.04729
3.0912
3.13433
3.17664
3.21806
3.25853
3.29799
3.33637
3.37363
3.40968
3.44449
3.47797
3.51008
3.54074
3.56991
3.59752
3.62352
3.64784
3.67043
3.69124
3.71021
3.72731
3.74249
3.75571
3.76694
3.77616
3.78335
3.78849
3.79141
3.79233
3.79122
3.78804
3.78281
3.77554
3.7663
3.75511
3.74204
3.72715
3.7105
3.69218
3.67228
3.65088
3.62809
3.60402
3.57877
3.55247
3.52522
3.49714
3.46836
3.43899
3.40917
3.379
3.34861
3.31811
3.28762
3.25724
3.22709
3.19726
3.16785
3.13896
3.11068
3.08307
3.05619
3.03008
3.00477
2.9803
2.95669
2.93394
2.91203
2.89092
2.8706
2.85102
2.83212
2.81386
2.79621
2.77921
2.76296
2.74759
2.73339
2.71951
2.70403
0.0368659
0.0774113
0.0986749
0.114022
0.126882
0.13849
0.149457
0.160129
0.170717
0.181358
0.192143
0.203132
0.21437
0.22589
0.237724
0.2499
0.262447
0.275394
0.288768
0.302594
0.316893
0.331683
0.346978
0.362789
0.379119
0.395976
0.413357
0.431264
0.449695
0.468648
0.488122
0.508118
0.528637
0.549682
0.571257
0.593369
0.616023
0.639229
0.662994
0.687329
0.712245
0.737754
0.763869
0.790605
0.817974
0.845992
0.874672
0.904027
0.934071
0.964818
0.996278
1.02847
1.06139
1.09506
1.12949
1.16468
1.20064
1.23738
1.2749
1.3132
1.35229
1.39216
1.43282
1.47424
1.51644
1.5594
1.60311
1.64756
1.69274
1.73862
1.78519
1.83242
1.8803
1.92878
1.97785
2.02746
2.0776
2.12821
2.17926
2.23072
2.28253
2.33465
2.38704
2.43964
2.49242
2.5453
2.59825
2.65121
2.70413
2.75694
2.8096
2.86204
2.9142
2.96603
3.01746
3.06843
3.11887
3.16873
3.21794
3.26644
3.31416
3.36103
3.407
3.45201
3.49597
3.53884
3.58055
3.62102
3.66021
3.69804
3.73446
3.76939
3.80279
3.83458
3.8647
3.89309
3.91969
3.94445
3.96731
3.9882
4.00709
4.02392
4.03866
4.05127
4.06172
4.06998
4.07604
4.07979
4.0813
4.08062
4.07771
4.07255
4.06518
4.05564
4.04397
4.03023
4.01448
3.9968
3.97725
3.95593
3.93293
3.90836
3.88231
3.85492
3.82628
3.79653
3.76578
3.73417
3.70182
3.66885
3.6354
3.60158
3.56752
3.53334
3.49914
3.46506
3.43118
3.39763
3.36449
3.33187
3.29984
3.26848
3.23783
3.20794
3.17885
3.15059
3.12318
3.09663
3.07093
3.04606
3.02202
2.99879
2.97634
2.95471
2.93396
2.91421
2.89564
2.8785
2.86199
2.84468
0.0398777
0.0822436
0.104551
0.120678
0.134182
0.146346
0.157798
0.168898
0.179873
0.190874
0.202005
0.213339
0.22493
0.236819
0.249039
0.26162
0.274589
0.287972
0.301792
0.316072
0.33083
0.346082
0.361841
0.378118
0.394919
0.412252
0.43012
0.448526
0.467471
0.48696
0.506994
0.527577
0.548712
0.570408
0.592669
0.615505
0.638926
0.662941
0.687561
0.7128
0.73867
0.765187
0.792366
0.820223
0.848773
0.878035
0.908023
0.938755
0.970246
1.00251
1.03557
1.06943
1.10411
1.13962
1.17597
1.21317
1.25124
1.29017
1.32998
1.37067
1.41224
1.45469
1.49802
1.54222
1.5873
1.63323
1.68002
1.72763
1.77607
1.82531
1.87533
1.9261
1.97759
2.02978
2.08262
2.13609
2.19015
2.24474
2.29984
2.35539
2.41134
2.46764
2.52424
2.58109
2.63813
2.69529
2.75252
2.80976
2.86695
2.92403
2.98093
3.03758
3.09393
3.1499
3.20542
3.26043
3.31486
3.36865
3.42171
3.47399
3.52542
3.57592
3.62543
3.67389
3.72122
3.76736
3.81224
3.8558
3.89796
3.93868
3.97788
4.01549
4.05147
4.08573
4.11823
4.14889
4.17766
4.20447
4.22926
4.25199
4.27259
4.29101
4.30722
4.32116
4.33281
4.34213
4.34911
4.35368
4.35584
4.35563
4.35303
4.348
4.34057
4.33079
4.31871
4.30437
4.28784
4.26919
4.24848
4.22581
4.20127
4.17497
4.147
4.11749
4.08654
4.0543
4.02088
3.98641
3.95103
3.91486
3.87803
3.84068
3.80293
3.76491
3.72673
3.68852
3.65039
3.61245
3.57482
3.53758
3.50085
3.4647
3.4292
3.3944
3.36036
3.32712
3.29474
3.26324
3.23263
3.20294
3.17418
3.14638
3.11955
3.09375
3.06908
3.04569
3.02375
3.00351
2.98419
2.96458
0.042273
0.086019
0.109125
0.125863
0.139885
0.152505
0.164361
0.175821
0.187119
0.198414
0.209818
0.221414
0.233261
0.245408
0.25789
0.270739
0.283982
0.297645
0.311749
0.326314
0.341358
0.356896
0.372942
0.389507
0.406601
0.424232
0.442408
0.461135
0.480418
0.500265
0.520681
0.541674
0.56325
0.58542
0.608193
0.63158
0.655594
0.680247
0.705553
0.731529
0.75819
0.785554
0.813638
0.842463
0.872047
0.90241
0.933571
0.965549
0.998364
1.03203
1.06658
1.10201
1.13835
1.17561
1.21381
1.25295
1.29306
1.33413
1.37618
1.41922
1.46323
1.50824
1.55423
1.6012
1.64915
1.69806
1.74792
1.79872
1.85044
1.90306
1.95654
2.01087
2.06601
2.12192
2.17857
2.23591
2.29391
2.35251
2.41166
2.47131
2.53141
2.59189
2.6527
2.71377
2.77505
2.83646
2.89794
2.95941
3.02082
3.08209
3.14315
3.20393
3.26436
3.32436
3.38386
3.44278
3.50106
3.55861
3.61537
3.67126
3.72621
3.78015
3.83301
3.88472
3.9352
3.98439
4.03223
4.07864
4.12356
4.16692
4.20867
4.24874
4.28706
4.32358
4.35823
4.39095
4.42168
4.45035
4.47691
4.5013
4.52346
4.54334
4.56089
4.57607
4.58883
4.59915
4.60699
4.61233
4.61513
4.61541
4.61315
4.60827
4.60082
4.59085
4.5784
4.56353
4.54629
4.52673
4.50494
4.481
4.455
4.42703
4.39721
4.36564
4.33244
4.29775
4.26168
4.22437
4.18595
4.14656
4.10634
4.0654
4.0239
3.98195
3.93968
3.89722
3.8547
3.81222
3.76992
3.72789
3.68625
3.64509
3.60451
3.56456
3.52533
3.48689
3.4493
3.41261
3.37688
3.34216
3.30851
3.27596
3.24459
3.21449
3.18578
3.15864
3.13323
3.10979
3.08756
3.06562
0.0440827
0.0888358
0.112517
0.129711
0.144126
0.157099
0.169271
0.181013
0.192562
0.20408
0.215684
0.227461
0.239476
0.251782
0.264419
0.27742
0.290814
0.304626
0.318876
0.333584
0.348767
0.364442
0.380623
0.397324
0.414557
0.432333
0.450663
0.469557
0.489026
0.509078
0.529724
0.550975
0.572842
0.595338
0.618475
0.642268
0.666733
0.691885
0.717743
0.744324
0.771648
0.799735
0.828607
0.858288
0.8888
0.920166
0.952409
0.985551
1.01961
1.05462
1.09059
1.12755
1.16551
1.20449
1.2445
1.28557
1.32771
1.37092
1.41522
1.46061
1.5071
1.55469
1.60337
1.65314
1.704
1.75593
1.80891
1.86293
1.91797
1.97401
2.031
2.08892
2.14774
2.20741
2.26789
2.32912
2.39107
2.45367
2.51687
2.58061
2.64483
2.70945
2.77442
2.83966
2.9051
2.97067
3.03629
3.10188
3.16738
3.2327
3.29778
3.36251
3.42684
3.49068
3.55394
3.61656
3.67844
3.73952
3.79972
3.85896
3.91716
3.97425
4.03015
4.0848
4.13813
4.19005
4.24052
4.28946
4.3368
4.38248
4.42645
4.46864
4.50899
4.54745
4.58394
4.61842
4.65082
4.68108
4.70915
4.73495
4.75844
4.77957
4.79827
4.81451
4.82825
4.83944
4.84806
4.85407
4.85745
4.85818
4.85629
4.85156
4.84409
4.83395
4.82119
4.80584
4.78796
4.76759
4.7448
4.71968
4.69231
4.66278
4.63119
4.59766
4.56231
4.52524
4.48661
4.44652
4.40513
4.36257
4.31897
4.27447
4.22921
4.18333
4.13695
4.09021
4.04324
3.99616
3.9491
3.90218
3.85553
3.80925
3.76345
3.71823
3.67367
3.62987
3.58693
3.54492
3.50394
3.46407
3.42539
3.388
3.35201
3.31752
3.2847
3.25374
3.22481
3.19812
3.17295
3.14866
0.0453179
0.0907647
0.11484
0.132352
0.147046
0.160271
0.172669
0.184612
0.196336
0.208003
0.219734
0.231618
0.243724
0.256104
0.268802
0.281853
0.295288
0.309131
0.323406
0.338132
0.353327
0.369009
0.385194
0.401899
0.419139
0.43693
0.455285
0.47422
0.493747
0.513881
0.534636
0.556027
0.57807
0.60078
0.624173
0.648268
0.673082
0.698635
0.72495
0.752048
0.779952
0.808688
0.838281
0.86876
0.90015
0.932479
0.965773
1.00006
1.03536
1.0717
1.10911
1.1476
1.18721
1.22794
1.26982
1.31287
1.3571
1.40251
1.44913
1.49696
1.54599
1.59624
1.6477
1.70036
1.75421
1.80923
1.86542
1.92274
1.98117
2.04068
2.10124
2.1628
2.22533
2.28878
2.35309
2.41821
2.48409
2.55066
2.61786
2.68561
2.75386
2.82252
2.89153
2.96079
3.03024
3.09979
3.16936
3.23887
3.30822
3.37735
3.44617
3.51458
3.58251
3.64987
3.71657
3.78254
3.84768
3.91192
3.97517
4.03736
4.09841
4.15824
4.21678
4.27395
4.32968
4.38392
4.43657
4.4876
4.53692
4.58449
4.63024
4.67412
4.71608
4.75605
4.79398
4.82982
4.86351
4.89499
4.92421
4.9511
4.97562
4.99771
5.01731
5.03438
5.04888
5.06076
5.07001
5.07657
5.08043
5.08156
5.08
5.07543
5.06795
5.05767
5.04463
5.02887
5.01041
4.98932
4.96564
4.93945
4.91083
4.87987
4.84666
4.8113
4.77392
4.73462
4.69354
4.65081
4.60656
4.56094
4.51407
4.46611
4.41718
4.36744
4.31701
4.26603
4.21465
4.16299
4.11119
4.05939
4.00772
3.95631
3.90527
3.85473
3.80481
3.75561
3.70727
3.6599
3.61362
3.56855
3.52482
3.48256
3.4419
3.40301
3.36607
3.33127
3.29881
3.26887
3.2408
3.21422
0.0460898
0.0919285
0.116217
0.13392
0.148787
0.162169
0.174707
0.18677
0.198595
0.210342
0.222129
0.234044
0.246158
0.258527
0.271195
0.284202
0.297579
0.311355
0.325555
0.340201
0.355304
0.370884
0.386964
0.403565
0.420707
0.438409
0.45669
0.475568
0.495062
0.515191
0.535974
0.55743
0.579578
0.60244
0.626035
0.650383
0.675503
0.701415
0.728149
0.755734
0.7842
0.813576
0.843895
0.875188
0.907485
0.940819
0.975217
1.01071
1.04733
1.0851
1.12404
1.16419
1.20556
1.24818
1.29206
1.33723
1.3837
1.43147
1.48056
1.53098
1.58273
1.63579
1.69017
1.74586
1.80284
1.86109
1.92059
1.98131
2.04322
2.10628
2.17045
2.23569
2.30194
2.36915
2.43726
2.50621
2.57594
2.64637
2.71743
2.78905
2.86114
2.93363
3.00644
3.07947
3.15264
3.22587
3.29905
3.37211
3.44495
3.51749
3.58963
3.66129
3.73237
3.80279
3.87244
3.94126
4.00915
4.07602
4.1418
4.20641
4.26975
4.33177
4.39238
4.45151
4.50909
4.56505
4.61934
4.67189
4.72263
4.77153
4.81851
4.86354
4.90656
4.94753
4.98639
5.02311
5.05761
5.08986
5.11981
5.14739
5.17255
5.19525
5.21543
5.23304
5.24805
5.26041
5.27009
5.27705
5.28126
5.28272
5.28142
5.27701
5.2695
5.2591
5.24583
5.22971
5.21078
5.18906
5.16462
5.13751
5.10779
5.07556
5.0409
5.0039
4.96467
4.92333
4.88001
4.83482
4.7879
4.73939
4.68944
4.63818
4.58575
4.5323
4.47797
4.42291
4.36725
4.31113
4.25471
4.19813
4.14153
4.08507
4.02887
3.97309
3.91786
3.86333
3.80965
3.75696
3.70543
3.65521
3.60646
3.55937
3.51409
3.47083
3.4298
3.39121
3.35526
3.32214
3.29125
3.26251
0.0461767
0.0921081
0.116653
0.134502
0.149474
0.162938
0.175542
0.187652
0.199501
0.211247
0.223009
0.234876
0.246919
0.259196
0.271753
0.28463
0.297864
0.311486
0.32553
0.340031
0.354977
0.370399
0.386323
0.402771
0.419768
0.437337
0.4555
0.474282
0.493705
0.513794
0.534573
0.556065
0.578297
0.601292
0.625075
0.64967
0.675102
0.701397
0.728619
0.756757
0.785859
0.81597
0.847124
0.879359
0.912711
0.947213
0.982897
1.0198
1.05794
1.09736
1.13808
1.18012
1.22352
1.26829
1.31445
1.36201
1.41099
1.46139
1.51323
1.5665
1.6212
1.67732
1.73485
1.79378
1.85407
1.91571
1.97866
2.04289
2.10836
2.17502
2.24282
2.31171
2.38163
2.45252
2.5243
2.59692
2.6703
2.74436
2.81901
2.89418
2.96978
3.04573
3.12193
3.19828
3.27471
3.35111
3.42739
3.50345
3.5792
3.65455
3.72941
3.80367
3.87724
3.95005
4.02198
4.09295
4.16288
4.23169
4.29927
4.36557
4.43049
4.49397
4.55592
4.61629
4.675
4.73198
4.78719
4.84056
4.89204
4.94158
4.98914
5.03466
5.07812
5.11947
5.15867
5.19568
5.23045
5.26295
5.29312
5.32092
5.34629
5.3692
5.38959
5.40741
5.42262
5.43519
5.44507
5.45224
5.45667
5.45835
5.45727
5.453
5.44545
5.43496
5.42151
5.40513
5.38582
5.36362
5.33856
5.3107
5.28009
5.2468
5.2109
5.1725
5.13167
5.08854
5.04321
4.99582
4.94649
4.89536
4.84258
4.78827
4.73259
4.67568
4.61769
4.55876
4.49905
4.43869
4.37786
4.3167
4.25538
4.19405
4.13287
4.07202
4.01165
3.95194
3.89306
3.8352
3.77855
3.72331
3.66968
3.61787
3.5681
3.52058
3.47557
3.43329
3.39388
3.35762
3.32396
3.29322
0.0460261
0.0918891
0.116436
0.134295
0.149274
0.162738
0.175328
0.187409
0.199213
0.210898
0.222582
0.234353
0.246282
0.258428
0.270838
0.283549
0.296602
0.310028
0.323854
0.338101
0.352795
0.367967
0.383649
0.399871
0.416661
0.43405
0.452067
0.470744
0.490107
0.510188
0.531016
0.552623
0.57504
0.598299
0.622428
0.647457
0.673421
0.700352
0.728248
0.757138
0.787113
0.818215
0.850485
0.883968
0.918707
0.954736
0.992084
1.03078
1.07087
1.11237
1.15531
1.19971
1.24558
1.29296
1.34184
1.39225
1.44418
1.49764
1.55262
1.60912
1.66713
1.72663
1.7876
1.85001
1.91382
1.97901
2.04553
2.11334
2.18238
2.2526
2.32394
2.39634
2.46974
2.54405
2.61921
2.69515
2.77177
2.849
2.92674
3.00492
3.08344
3.16221
3.24113
3.3201
3.39905
3.47785
3.55643
3.63467
3.71248
3.78978
3.86646
3.94243
4.01759
4.09186
4.16514
4.23734
4.30838
4.37817
4.44663
4.51369
4.57926
4.64328
4.70568
4.76639
4.82534
4.88248
4.93776
4.99112
5.04252
5.09192
5.13927
5.18455
5.22772
5.26875
5.30761
5.34427
5.3787
5.41085
5.4407
5.4682
5.49331
5.51598
5.53618
5.55385
5.56895
5.58145
5.59129
5.59847
5.60296
5.60478
5.60385
5.59972
5.59216
5.58162
5.56808
5.55153
5.53199
5.50947
5.484
5.45561
5.42434
5.39025
5.35341
5.31388
5.27176
5.22715
5.18014
5.13088
5.07947
5.02605
4.97076
4.91375
4.85514
4.7951
4.73377
4.6713
4.60785
4.54357
4.47862
4.41318
4.34742
4.28151
4.21563
4.14998
4.08474
4.02009
3.95626
3.89347
3.83194
3.7719
3.7135
3.65706
3.60284
3.55113
3.50218
3.45628
3.41365
3.37458
3.3385
3.30608
0.0455915
0.091225
0.115651
0.13344
0.148347
0.161725
0.174214
0.186178
0.197847
0.209377
0.220883
0.232457
0.244168
0.256076
0.26823
0.280673
0.293445
0.306582
0.320118
0.334088
0.348533
0.363486
0.378977
0.39504
0.411711
0.429026
0.447023
0.465741
0.485215
0.505483
0.526583
0.548557
0.571451
0.595299
0.620124
0.645965
0.672853
0.700805
0.729828
0.760028
0.791482
0.824236
0.858328
0.893796
0.930667
0.968975
1.00876
1.05004
1.09287
1.13728
1.18328
1.23087
1.28005
1.33084
1.38324
1.43724
1.49284
1.55002
1.60877
1.66908
1.7309
1.79421
1.85898
1.92516
1.99271
2.06158
2.13172
2.20306
2.27556
2.34915
2.42375
2.49931
2.57574
2.65297
2.73093
2.80952
2.88867
2.96829
3.04829
3.12858
3.20907
3.28966
3.37028
3.4508
3.53115
3.61123
3.69094
3.77018
3.84886
3.92688
4.00416
4.0806
4.15612
4.23061
4.304
4.3762
4.44712
4.51669
4.58482
4.65145
4.71651
4.77993
4.84164
4.90158
4.95969
5.01593
5.07024
5.1226
5.17295
5.22127
5.26752
5.31167
5.35371
5.39362
5.43138
5.46697
5.50036
5.53151
5.56043
5.58706
5.61138
5.63334
5.6529
5.67003
5.68467
5.69678
5.70634
5.71331
5.71771
5.71957
5.71874
5.71476
5.70722
5.69669
5.68315
5.66658
5.64697
5.62432
5.59865
5.56997
5.53831
5.50371
5.46622
5.4259
5.38281
5.33706
5.28873
5.23793
5.1848
5.12946
5.07203
5.01267
4.95151
4.8887
4.82438
4.75873
4.69188
4.62402
4.5553
4.48592
4.41605
4.34589
4.27563
4.20545
4.13555
4.06617
3.99757
3.93002
3.86377
3.79908
3.73637
3.67582
3.61769
3.56229
3.50991
3.46087
3.4154
3.37369
3.33533
3.30147
0.0446999
0.0899524
0.114138
0.131747
0.146481
0.159681
0.171985
0.183753
0.195217
0.206536
0.217824
0.229171
0.24065
0.252322
0.264239
0.276448
0.288994
0.301921
0.315271
0.329086
0.343409
0.358286
0.37376
0.389873
0.40667
0.424197
0.442507
0.461659
0.481691
0.50264
0.524556
0.547485
0.571461
0.596438
0.62253
0.649811
0.678344
0.708198
0.739429
0.772084
0.806212
0.841854
0.879043
0.91781
0.958176
1.00016
1.04379
1.08907
1.13603
1.18464
1.23492
1.28685
1.34042
1.39562
1.45243
1.51082
1.57078
1.63226
1.69523
1.75965
1.82548
1.89266
1.96116
2.0309
2.10185
2.17394
2.24711
2.3213
2.39644
2.47247
2.54931
2.6269
2.70517
2.78403
2.86342
2.94324
3.02343
3.1039
3.18457
3.26535
3.34615
3.4269
3.50749
3.58784
3.66787
3.74748
3.82659
3.90509
3.98291
4.05996
4.13615
4.21139