/*--------------------------------*- C++ -*----------------------------------*\
  =========                 |
  \\      /  F ield         | OpenFOAM: The Open Source CFD Toolbox
   \\    /   O peration     | Website:  https://openfoam.org
    \\  /    A nd           | Version:  13
     \\/     M anipulation  |
\*---------------------------------------------------------------------------*/
FoamFile
{
    format      ascii;
    class       volScalarField;
    location    "200";
    object      nut;
}
// * * * * * * * * * * * * * * * * * * * * * * * * * * * * * * * * * * * * * //

dimensions      [0 2 -1 0 0 0 0];

internalField   nonuniform List<scalar> 
12225
(
4.06119e-05
3.64933e-05
3.32296e-05
3.0391e-05
2.81579e-05
2.61818e-05
2.46761e-05
2.33786e-05
2.24454e-05
2.16555e-05
2.12131e-05
2.08661e-05
2.08681e-05
2.09303e-05
2.12998e-05
2.15196e-05
2.27236e-05
2.1622e-05
0.000298352
0.000189577
0.000155282
0.000136615
0.000126741
0.000118708
0.000115615
0.000111785
0.000110615
0.000109065
0.00010997
0.00010983
0.000111295
0.000112399
0.000114189
0.000116138
0.000117681
0.000119896
0.000660398
0.00046412
0.000376335
0.000323337
0.000292482
0.000266512
0.000251608
0.000235178
0.000227075
0.00021526
0.000209955
0.000200669
0.000197008
0.000189652
0.000186486
0.000180231
0.000177696
0.000172678
0.000811092
0.000696022
0.000603278
0.00053318
0.000487499
0.000447175
0.00042147
0.000394576
0.000378408
0.000358449
0.000347284
0.000331195
0.000323084
0.000308972
0.000302139
0.00029002
0.000284069
0.000273115
0.000843137
0.000809162
0.000753536
0.000697557
0.000654776
0.000613429
0.000584133
0.000553837
0.000533215
0.000509956
0.000494719
0.0004758
0.000464126
0.000448136
0.000438555
0.000424465
0.000416356
0.000403053
0.000852101
0.000841308
0.000820977
0.000792753
0.000764247
0.000733504
0.000708942
0.000682883
0.000663046
0.000641536
0.000625654
0.000607638
0.000594754
0.000579324
0.000568691
0.000555076
0.000546274
0.000533134
0.000852367
0.000850248
0.000843957
0.000832997
0.00081929
0.000802813
0.000786894
0.000769252
0.000754231
0.000737979
0.000724682
0.000710197
0.000698659
0.000685798
0.00067592
0.000664335
0.000655959
0.000644521
0.000851975
0.000851473
0.000850193
0.000846596
0.000841572
0.000834414
0.000826199
0.000817059
0.000807785
0.000797865
0.000788774
0.00077891
0.000770364
0.00076108
0.000753299
0.000744705
0.000737592
0.000729227
0.000851843
0.000851424
0.000851115
0.000850057
0.000848502
0.000845928
0.000842695
0.000838538
0.000834136
0.000828934
0.000823915
0.000818239
0.000813019
0.000807235
0.000802137
0.000796462
0.000791696
0.000785608
0.000851812
0.000851371
0.000851088
0.000850623
0.000850096
0.000849189
0.000848081
0.000846455
0.000844684
0.000842384
0.000840073
0.000837273
0.000834637
0.000831488
0.000828771
0.000825339
0.000822837
0.000818988
0.000851799
0.000851366
0.000851026
0.000850645
0.000850314
0.000849867
0.000849418
0.00084876
0.000848078
0.000847134
0.000846195
0.000844959
0.000843812
0.000842309
0.000841049
0.000839304
0.000838048
0.000836066
0.000851791
0.000851367
0.000851002
0.000850626
0.000850304
0.000849946
0.00084963
0.000849237
0.00084887
0.000848387
0.000847934
0.000847328
0.000846783
0.000846043
0.000845427
0.000844553
0.000843902
0.000842897
0.000851786
0.000851367
0.000850989
0.000850615
0.00085028
0.00084994
0.000849639
0.000849318
0.000849031
0.000848705
0.000848413
0.000848061
0.000847749
0.000847356
0.00084702
0.00084658
0.000846223
0.000845735
0.000851782
0.000851366
0.00085098
0.000850607
0.000850262
0.000849925
0.000849616
0.000849311
0.000849031
0.000848748
0.000848489
0.000848221
0.000847976
0.000847713
0.000847475
0.000847212
0.000846976
0.00084671
0.000851781
0.000851365
0.000850974
0.000850601
0.00085025
0.000849913
0.000849597
0.000849293
0.000849007
0.000848732
0.000848472
0.00084822
0.000847983
0.00084775
0.000847531
0.000847315
0.000847111
0.000846909
0.00085178
0.000851364
0.00085097
0.000850595
0.000850241
0.000849903
0.000849583
0.000849278
0.000848988
0.000848712
0.000848448
0.000848196
0.000847957
0.000847727
0.000847508
0.000847297
0.000847096
0.000846903
0.000851779
0.000851362
0.000850967
0.000850591
0.000850235
0.000849896
0.000849574
0.000849267
0.000848975
0.000848696
0.00084843
0.000848177
0.000847934
0.000847703
0.000847481
0.00084727
0.000847067
0.000846873
0.000851779
0.000851362
0.000850965
0.000850589
0.000850232
0.000849891
0.000849568
0.00084926
0.000848966
0.000848686
0.000848419
0.000848163
0.000847919
0.000847686
0.000847463
0.00084725
0.000847045
0.00084685
0.000851779
0.000851362
0.000850965
0.000850589
0.000850231
0.00084989
0.000849566
0.000849257
0.000848963
0.000848682
0.000848414
0.000848157
0.000847912
0.000847678
0.000847454
0.00084724
0.000847035
0.000846838
0.000851779
0.000851362
0.000850966
0.000850591
0.000850233
0.000849894
0.00084957
0.000849261
0.000848967
0.000848686
0.000848418
0.000848161
0.000847916
0.000847681
0.000847456
0.000847241
0.000847034
0.000846836
0.000851779
0.000851364
0.000850969
0.000850595
0.000850238
0.0008499
0.000849577
0.00084927
0.000848974
0.000848693
0.00084842
0.00084816
0.000847906
0.000847664
0.000847425
0.000847198
0.000846971
0.000846757
0.000851779
0.000851367
0.000850973
0.000850603
0.000850247
0.00084991
0.000849578
0.00084926
0.000848937
0.000848624
0.000848297
0.000847978
0.000847638
0.000847308
0.000846949
0.000846609
0.000846228
0.000845882
0.000851776
0.000851373
0.000850983
0.000850615
0.000850228
0.000849829
0.000849372
0.000848874
0.000848289
0.000847657
0.000846923
0.000846157
0.000845279
0.000844404
0.000843402
0.000842454
0.000841349
0.000840374
0.000851754
0.000851412
0.000850982
0.000850426
0.000849597
0.000848488
0.00084701
0.000845238
0.000843128
0.000840803
0.000838217
0.000835529
0.000832632
0.00082977
0.000826696
0.000823824
0.000820646
0.000817904
0.000851694
0.000851512
0.000849954
0.000847312
0.000843271
0.000838109
0.000831928
0.000825193
0.000817971
0.000810634
0.000803185
0.000795839
0.000788602
0.000781618
0.000774783
0.000768381
0.000761848
0.000756272
0.000851524
0.00084868
0.000837762
0.00082482
0.000808264
0.000790786
0.000773107
0.0007563
0.000740101
0.000725255
0.000711066
0.000698314
0.000686006
0.000675155
0.000664426
0.000655236
0.000645722
0.000638034
0.000844135
0.000818326
0.000774001
0.000730812
0.00069206
0.000658766
0.000629823
0.00060523
0.000583501
0.00056501
0.00054817
0.000533909
0.000520427
0.000509148
0.000498001
0.000488845
0.000479416
0.000471956
0.000791545
0.000658978
0.000570344
0.000510352
0.000467189
0.000434971
0.000409762
0.000389751
0.000373112
0.000359504
0.000347516
0.000337829
0.000328607
0.000321398
0.00031398
0.00030857
0.000302645
0.000298053
0.000465532
0.000319547
0.000265281
0.000235721
0.000216799
0.000203441
0.000193818
0.000186288
0.000180829
0.000176121
0.000173055
0.000170384
0.000167963
0.000166632
0.00016516
0.00016466
0.000163773
0.000163813
7.2179e-05
6.78565e-05
6.41735e-05
6.09444e-05
5.81297e-05
5.56297e-05
5.34383e-05
5.14944e-05
4.97859e-05
4.82929e-05
4.69678e-05
4.58543e-05
4.48494e-05
4.40301e-05
4.32989e-05
4.27229e-05
4.22247e-05
4.18492e-05
4.08424e-07
9.33111e-06
1.69478e-05
2.48534e-05
3.33663e-05
4.25398e-05
5.22524e-05
6.2303e-05
7.24887e-05
8.27021e-05
9.28291e-05
0.000102771
0.000112385
0.000121593
0.00013032
0.000138547
0.000146231
0.000153382
0.000159991
0.000166134
0.000171903
0.000177483
0.000183026
0.000188726
0.000193345
0.000199781
0.000211264
0.000218659
0.00022538
0.00022768
0.000225281
0.000219611
0.00021424
0.000209258
0.000199834
4.448e-05
4.849e-05
4.8752e-05
4.98156e-05
5.09325e-05
5.19202e-05
5.29784e-05
5.40032e-05
5.50398e-05
5.60704e-05
5.71041e-05
5.8135e-05
5.9169e-05
6.02004e-05
6.12354e-05
6.22676e-05
6.33034e-05
6.43363e-05
6.53723e-05
6.64054e-05
6.74413e-05
6.8474e-05
6.95086e-05
7.05397e-05
7.15721e-05
7.26002e-05
7.36287e-05
7.46524e-05
7.56762e-05
7.66949e-05
7.77141e-05
7.87287e-05
7.97417e-05
8.07455e-05
8.1745e-05
8.27357e-05
8.37227e-05
8.47002e-05
8.56727e-05
8.66348e-05
8.75905e-05
8.85346e-05
8.9471e-05
9.03948e-05
9.13098e-05
9.22111e-05
9.31021e-05
9.39782e-05
9.48429e-05
9.56912e-05
9.65265e-05
9.73442e-05
9.8147e-05
9.89314e-05
9.96991e-05
0.000100449
0.000101178
0.000101887
0.000102576
0.000103244
0.000103893
0.000104532
0.000105146
0.000105739
0.000106311
0.00010686
0.000107385
0.000107886
0.000108362
0.000108813
0.000109238
0.000109636
0.000110007
0.000110351
0.000110666
0.000110953
0.000111211
0.000111438
0.000111636
0.000111802
0.000111938
0.000112041
0.000112113
0.000112153
0.000112159
0.000112133
0.000112074
0.000111977
0.000111862
0.000111698
0.000111496
0.000111258
0.000111001
0.000110721
0.000110392
0.000110036
0.000109645
0.000109225
0.000108772
0.00010829
0.000107778
0.000107238
0.000106668
0.000106072
0.000105452
0.000104808
0.000104143
0.000103459
0.000102757
0.000102039
0.000101308
0.000100564
9.981e-05
9.90473e-05
9.82793e-05
9.7507e-05
9.67341e-05
9.5961e-05
9.51917e-05
9.44267e-05
9.36698e-05
9.29218e-05
9.21871e-05
9.14666e-05
9.07663e-05
9.005e-05
8.9368e-05
8.87517e-05
8.82252e-05
8.82784e-05
8.80448e-05
8.76105e-05
8.73358e-05
8.70328e-05
8.67747e-05
8.65446e-05
8.63428e-05
8.6185e-05
8.60414e-05
8.59047e-05
8.58013e-05
8.57148e-05
8.55734e-05
8.53454e-05
8.40549e-05
1.84272e-06
3.68579e-05
7.47433e-05
9.86803e-05
0.000114832
0.000128138
0.0001406
0.000152713
0.000164559
0.000176273
0.00018807
0.000200024
0.000211909
0.000223442
0.000234399
0.000244649
0.000254135
0.000262861
0.000270865
0.00027824
0.000285131
0.000291738
0.000298315
0.000304726
0.000310209
0.000314925
0.000318612
0.000320026
0.000319125
0.00031323
0.000302394
0.000291155
0.000278979
0.000269826
0.00026027
0.000245829
0.000259321
0.000264892
0.000272861
0.000280266
0.00028781
0.000295383
0.000302977
0.00031063
0.000318327
0.000326089
0.000333915
0.000341815
0.00034979
0.000357848
0.000365991
0.000374223
0.000382547
0.000390966
0.000399482
0.000408097
0.000416813
0.00042563
0.000434549
0.000443572
0.000452697
0.000461921
0.000471236
0.000480632
0.000490099
0.000499646
0.000509342
0.000519231
0.000529222
0.000539243
0.000549313
0.000559461
0.000569689
0.000579991
0.000590361
0.000600796
0.000611287
0.000621831
0.000632422
0.000643055
0.000653724
0.000664423
0.000675145
0.000685885
0.000696634
0.000707386
0.000718129
0.000728858
0.000739559
0.00075022
0.000760825
0.000771344
0.000781739
0.00079195
0.000801893
0.000811468
0.000820568
0.000829635
0.00083859
0.000847446
0.000856183
0.000864796
0.000873274
0.000881608
0.000889788
0.000897804
0.000905647
0.000913305
0.00092077
0.000928029
0.000935073
0.00094189
0.000948469
0.000954799
0.000960867
0.000966664
0.000972176
0.000977394
0.000982306
0.0009869
0.000991165
0.0009951
0.000998734
0.00100213
0.00100519
0.00100766
0.00100955
0.00101136
0.00101302
0.00101415
0.0010149
0.00101529
0.0010153
0.00101496
0.00101426
0.00101322
0.00101185
0.00101016
0.00100815
0.00100583
0.00100322
0.00100034
0.000997198
0.000993823
0.000990229
0.000986438
0.000982469
0.000978346
0.000974089
0.000969725
0.000965277
0.000960771
0.000956229
0.000951678
0.000947142
0.000942649
0.000938222
0.000933891
0.000929679
0.000925605
0.000921569
0.000917768
0.000914206
0.000910787
0.000907616
0.000901963
0.000896539
0.00089168
0.000886719
0.000882032
0.000877477
0.000872997
0.000868573
0.000864103
0.000859656
0.000855043
0.00085
0.000844466
0.000836205
0.000812067
3.77653e-06
5.79569e-05
0.000117705
0.000160808
0.000191056
0.000213213
0.000230957
0.000246554
0.000261161
0.000275329
0.000289292
0.000303127
0.000316787
0.000330112
0.000342916
0.000355027
0.000366422
0.000377112
0.000387139
0.000396568
0.000405477
0.000413931
0.000421945
0.000429836
0.000438313
0.000447283
0.000456216
0.000464456
0.000471166
0.000476136
0.000480142
0.000484009
0.000488639
0.000494599
0.00050163
0.000511052
0.000526271
0.000540727
0.000555594
0.000570392
0.000585285
0.000600256
0.000615322
0.000630501
0.000645801
0.000661235
0.000676814
0.000692547
0.000708442
0.000724507
0.000740747
0.000757168
0.000773775
0.00079057
0.000807557
0.000824738
0.000842114
0.000859686
0.000877452
0.000895413
0.000913565
0.000931906
0.000950429
0.000969129
0.000987998
0.00100703
0.00102624
0.00104566
0.00106527
0.00108502
0.00110489
0.00112488
0.001145
0.00116524
0.00118558
0.00120603
0.00122655
0.00124715
0.00126782
0.00128853
0.00130929
0.00133007
0.00135086
0.00137165
0.00139243
0.00141317
0.00143387
0.00145449
0.00147502
0.00149544
0.00151572
0.00153581
0.00155567
0.00157525
0.0015945
0.00161335
0.00163188
0.00165021
0.00166833
0.00168621
0.00170384
0.0017212
0.00173827
0.00175504
0.00177148
0.00178758
0.00180331
0.00181865
0.0018336
0.00184811
0.00186218
0.00187578
0.00188889
0.00190148
0.00191354
0.00192505
0.00193597
0.00194629
0.001956
0.00196506
0.00197346
0.00198121
0.0019883
0.00199474
0.00200069
0.0020058
0.00200954
0.00201282
0.00201579
0.00201784
0.00201912
0.00201964
0.00201943
0.00201847
0.0020168
0.00201443
0.00201137
0.00200766
0.00200329
0.00199831
0.00199273
0.0019866
0.00197994
0.00197281
0.00196523
0.00195725
0.00194891
0.00194026
0.00193134
0.0019222
0.00191288
0.00190344
0.00189393
0.00188439
0.00187487
0.00186543
0.00185612
0.00184698
0.00183806
0.00182939
0.00182093
0.00181283
0.00180507
0.00179755
0.00179007
0.00178089
0.0017719
0.00176335
0.00175488
0.00174671
0.00173872
0.0017308
0.00172273
0.00171455
0.00170681
0.00169894
0.00168976
0.00167936
0.00166396
0.00162496
5.66899e-06
7.37124e-05
0.000149387
0.000206736
0.000248182
0.000279028
0.00030333
0.000323832
0.000342221
0.000359451
0.000376015
0.000392093
0.000407689
0.000422769
0.000437307
0.000451329
0.00046482
0.000477815
0.000490391
0.000502659
0.000514762
0.000526888
0.00053927
0.000552201
0.000565934
0.000580478
0.000595601
0.000610921
0.000626051
0.000640837
0.000655501
0.000670377
0.000685915
0.000701818
0.000719465
0.000738486
0.000758882
0.000779507
0.000800307
0.000821202
0.000842219
0.00086337
0.000884669
0.000906133
0.000927775
0.000949607
0.000971642
0.000993892
0.00101637
0.00103908
0.00106204
0.00108524
0.0011087
0.00113241
0.00115638
0.00118061
0.0012051
0.00122985
0.00125486
0.00128012
0.00130563
0.00133139
0.00135739
0.00138362
0.00141007
0.00143674
0.00146364
0.00149075
0.00151808
0.00154558
0.00157325
0.00160107
0.00162903
0.00165712
0.00168533
0.00171364
0.00174204
0.00177051
0.00179904
0.0018276
0.00185618
0.00188477
0.00191334
0.00194187
0.00197035
0.00199875
0.00202705
0.00205522
0.00208324
0.00211109
0.00213872
0.00216611
0.00219322
0.00222
0.0022464
0.00227243
0.00229814
0.00232355
0.00234864
0.00237341
0.00239781
0.00242183
0.00244546
0.00246865
0.00249139
0.00251366
0.00253542
0.00255665
0.00257733
0.00259742
0.00261691
0.00263575
0.00265393
0.00267141
0.00268817
0.00270417
0.00271938
0.00273379
0.00274735
0.00276005
0.00277187
0.00278278
0.00279279
0.00280186
0.00281027
0.0028177
0.0028234
0.00282817
0.00283242
0.00283553
0.00283757
0.00283855
0.0028385
0.00283743
0.00283534
0.00283227
0.00282823
0.00282326
0.00281737
0.0028106
0.002803
0.0027946
0.00278546
0.00277563
0.00276515
0.00275409
0.00274251
0.00273046
0.00271801
0.00270522
0.00269216
0.00267891
0.00266551
0.00265206
0.00263861
0.00262524
0.00261201
0.002599
0.00258626
0.00257385
0.00256177
0.00255012
0.00253889
0.00252804
0.00251734
0.00250595
0.00249468
0.00248377
0.00247309
0.00246275
0.00245264
0.00244259
0.00243272
0.00242299
0.00241349
0.00240375
0.0023929
0.00238045
0.00236117
0.00232016
7.40778e-06
8.61948e-05
0.000175017
0.000244195
0.000296003
0.000335178
0.000366015
0.000391578
0.000413917
0.000434315
0.000453519
0.000471934
0.000489759
0.000507101
0.000524026
0.000540602
0.000556898
0.000573005
0.000589032
0.000605109
0.000621383
0.000638025
0.000655226
0.000673178
0.000692025
0.000711792
0.000732351
0.000753447
0.000774805
0.000796326
0.000818073
0.000840244
0.000863074
0.000886415
0.000910248
0.000934727
0.000959752
0.000985032
0.0010105
0.00103615
0.00106196
0.00108796
0.00111416
0.00114056
0.0011672
0.00119406
0.00122116
0.00124852
0.00127614
0.00130405
0.00133226
0.00136075
0.00138955
0.00141864
0.00144804
0.00147774
0.00150774
0.00153804
0.00156863
0.00159952
0.00163068
0.00166212
0.00169383
0.0017258
0.00175802
0.00179048
0.00182318
0.00185609
0.00188922
0.00192253
0.00195601
0.00198965
0.00202343
0.00205732
0.00209133
0.00212542
0.00215957
0.00219378
0.00222802
0.00226226
0.00229649
0.00233069
0.00236484
0.0023989
0.00243287
0.00246672
0.00250041
0.00253393
0.00256725
0.00260035
0.00263319
0.00266575
0.002698
0.00272992
0.0027615
0.00279272
0.00282359
0.0028541
0.00288423
0.00291395
0.00294325
0.0029721
0.00300048
0.00302835
0.00305569
0.00308247
0.00310866
0.00313424
0.00315918
0.00318344
0.00320699
0.0032298
0.00325184
0.00327308
0.00329348
0.003313
0.00333163
0.00334931
0.00336602
0.00338173
0.00339642
0.00341005
0.00342261
0.00343407
0.00344468
0.00345427
0.00346207
0.00346847
0.00347419
0.00347861
0.00348176
0.00348365
0.00348428
0.00348367
0.00348184
0.0034788
0.00347459
0.00346923
0.00346274
0.00345518
0.00344658
0.00343699
0.00342647
0.00341508
0.00340289
0.00338994
0.00337632
0.0033621
0.00334735
0.00333215
0.00331658
0.00330072
0.00328465
0.00326846
0.00325224
0.00323606
0.00322001
0.00320419
0.00318865
0.00317348
0.00315872
0.00314442
0.00313064
0.00311733
0.00310437
0.00309136
0.00307859
0.00306621
0.0030542
0.00304259
0.00303132
0.00302019
0.00300931
0.00299865
0.00298819
0.00297759
0.00296622
0.00295316
0.00293361
0.00289596
8.96449e-06
9.62044e-05
0.00019591
0.000275327
0.000336526
0.0003836
0.000420891
0.000451645
0.000478159
0.000501981
0.000524109
0.000545159
0.00056551
0.000585397
0.000604983
0.000624402
0.000643774
0.000663219
0.000682858
0.000702811
0.000723198
0.000744137
0.000765741
0.000788109
0.000811305
0.000835325
0.000860084
0.000885433
0.000911218
0.000937348
0.000963814
0.000990668
0.00101795
0.00104563
0.00107369
0.00110214
0.0011309
0.00115992
0.00118914
0.00121858
0.00124821
0.00127807
0.00130814
0.00133846
0.00136903
0.00139988
0.001431
0.00146243
0.00149414
0.00152616
0.00155848
0.00159111
0.00162405
0.0016573
0.00169086
0.00172473
0.00175891
0.00179339
0.00182818
0.00186325
0.0018986
0.00193424
0.00197013
0.00200629
0.00204268
0.00207932
0.00211617
0.00215323
0.00219047
0.0022279
0.00226548
0.0023032
0.00234103
0.00237898
0.002417
0.00245509
0.00249322
0.00253138
0.00256954
0.00260769
0.00264579
0.00268384
0.0027218
0.00275966
0.00279739
0.00283497
0.00287238
0.00290958
0.00294656
0.0029833
0.00301976
0.00305594
0.0030918
0.00312733
0.00316252
0.00319735
0.0032318
0.00326585
0.0032995
0.0033327
0.00336545
0.0033977
0.00342945
0.00346066
0.0034913
0.00352135
0.00355077
0.00357954
0.00360763
0.00363501
0.00366163
0.00368748
0.00371251
0.00373668
0.00375997
0.00378234
0.00380374
0.00382415
0.00384353
0.00386184
0.00387905
0.00389513
0.00391005
0.00392377
0.00393651
0.00394821
0.00395819
0.0039665
0.00397388
0.00397989
0.00398451
0.00398771
0.00398951
0.0039899
0.0039889
0.00398654
0.00398284
0.00397782
0.00397152
0.00396397
0.00395522
0.00394533
0.00393434
0.00392232
0.00390934
0.00389546
0.00388076
0.00386533
0.00384924
0.00383258
0.00381543
0.00379789
0.00378006
0.00376202
0.00374388
0.00372573
0.00370766
0.00368978
0.00367218
0.00365494
0.00363813
0.00362182
0.00360604
0.00359083
0.00357611
0.00356172
0.00354772
0.00353421
0.00352118
0.00350866
0.00349659
0.00348489
0.00347355
0.00346256
0.00345187
0.00344124
0.0034302
0.00341778
0.00340028
0.0033687
1.03158e-05
0.000104157
0.000212821
0.000301154
0.00037083
0.000425329
0.00046892
0.000504925
0.000535798
0.000563282
0.000588578
0.000612486
0.00063554
0.000658094
0.000680399
0.000702641
0.000724977
0.000747541
0.000770452
0.000793813
0.000817713
0.000842225
0.000867407
0.000893301
0.00091992
0.000947244
0.000975212
0.00100373
0.00103272
0.00106209
0.00109182
0.0011219
0.00115233
0.00118309
0.00121416
0.00124553
0.00127717
0.00130905
0.00134115
0.00137347
0.00140601
0.00143878
0.00147179
0.00150505
0.00153857
0.00157236
0.00160644
0.0016408
0.00167547
0.00171043
0.0017457
0.00178128
0.00181716
0.00185336
0.00188986
0.00192667
0.00196378
0.00200119
0.00203889
0.00207688
0.00211514
0.00215366
0.00219244
0.00223147
0.00227073
0.00231021
0.00234989
0.00238977
0.00242982
0.00247003
0.00251038
0.00255085
0.00259143
0.0026321
0.00267283
0.00271361
0.00275442
0.00279524
0.00283604
0.00287681
0.00291752
0.00295815
0.00299869
0.00303911
0.00307938
0.00311949
0.00315941
0.00319912
0.00323861
0.00327783
0.00331679
0.00335545
0.0033938
0.00343183
0.0034695
0.00350681
0.00354374
0.00358027
0.00361637
0.00365203
0.00368723
0.00372193
0.00375611
0.00378975
0.00382282
0.0038553
0.00388715
0.00391836
0.00394887
0.00397868
0.00400773
0.00403601
0.00406347
0.00409008
0.0041158
0.00414059
0.00416441
0.00418723
0.004209
0.00422969
0.00424926
0.00426767
0.00428489
0.00430087
0.00431578
0.00432961
0.00434181
0.00435234
0.00436161
0.00436952
0.00437595
0.00438084
0.0043842
0.00438604
0.00438637
0.0043852
0.00438256
0.00437846
0.00437294
0.00436603
0.00435778
0.00434822
0.00433743
0.00432546
0.00431237
0.00429825
0.00428316
0.00426719
0.00425043
0.00423296
0.00421489
0.0041963
0.0041773
0.004158
0.00413849
0.00411889
0.00409931
0.00407984
0.0040606
0.00404169
0.00402319
0.00400518
0.00398772
0.00397086
0.00395459
0.00393884
0.00392365
0.00390906
0.00389507
0.0038817
0.00386892
0.00385669
0.003845
0.00383384
0.00382317
0.00381284
0.00380251
0.00379131
0.0037765
0.00375177
1.1454e-05
0.000110337
0.000226253
0.000322317
0.000399551
0.000460988
0.000510642
0.000551853
0.000587162
0.000618445
0.000647052
0.000673932
0.000699743
0.000724946
0.000749861
0.000774727
0.000799724
0.000824999
0.00085067
0.000876827
0.000903535
0.00093084
0.000958769
0.000987334
0.00101653
0.00104632
0.00107667
0.00110752
0.0011388
0.00117046
0.00120248
0.00123481
0.00126746
0.0013004
0.00133361
0.00136709
0.00140081
0.00143477
0.00146896
0.00150336
0.00153798
0.00157283
0.0016079
0.00164322
0.00167879
0.00171462
0.00175072
0.00178711
0.00182377
0.00186072
0.00189797
0.0019355
0.00197334
0.00201147
0.00204989
0.0020886
0.0021276
0.00216688
0.00220643
0.00224626
0.00228634
0.00232668
0.00236725
0.00240806
0.00244908
0.00249031
0.00253174
0.00257334
0.0026151
0.00265701
0.00269905
0.00274121
0.00278346
0.00282579
0.00286818
0.00291061
0.00295306
0.00299552
0.00303796
0.00308036
0.00312271
0.00316497
0.00320714
0.00324919
0.00329109
0.00333284
0.0033744
0.00341576
0.0034569
0.00349779
0.00353842
0.00357877
0.00361882
0.00365856
0.00369796
0.00373701
0.00377568
0.00381397
0.00385184
0.00388929
0.00392628
0.00396279
0.00399881
0.0040343
0.00406925
0.00410362
0.0041374
0.00417055
0.00420304
0.00423485
0.00426595
0.00429629
0.00432585
0.00435459
0.00438247
0.00440945
0.00443549
0.00446056
0.0044846
0.00450758
0.00452945
0.00455018
0.00456972
0.00458802
0.00460522
0.00462127
0.00463579
0.00464873
0.00466021
0.0046703
0.00467885
0.00468576
0.00469104
0.0046947
0.00469675
0.0046972
0.00469605
0.00469334
0.00468907
0.00468329
0.00467602
0.00466731
0.00465721
0.00464579
0.0046331
0.00461921
0.00460422
0.00458818
0.00457121
0.00455338
0.0045348
0.00451557
0.00449579
0.00447558
0.00445504
0.0044343
0.00441347
0.00439266
0.00437199
0.00435159
0.00433154
0.00431195
0.0042929
0.00427445
0.00425663
0.00423946
0.00422296
0.00420717
0.0041921
0.00417778
0.00416421
0.00415138
0.00413929
0.00412794
0.00411735
0.00410742
0.00409793
0.00408818
0.00407611
0.00405762
1.23895e-05
0.00011502
0.000236674
0.000339504
0.000423279
0.000491049
0.00054642
0.00059267
0.000632365
0.000667458
0.000699399
0.000729248
0.000757765
0.000785495
0.000812821
0.000840018
0.000867287
0.000894784
0.000922685
0.000951053
0.000979926
0.00100933
0.00103929
0.00106979
0.00110083
0.00113238
0.00116439
0.00119685
0.00122969
0.00126289
0.0012964
0.00133021
0.0013643
0.00139864
0.00143323
0.00146806
0.00150313
0.00153842
0.00157397
0.00160971
0.00164564
0.00168178
0.00171811
0.00175467
0.00179145
0.00182847
0.00186574
0.00190326
0.00194104
0.00197909
0.00201741
0.00205599
0.00209486
0.00213399
0.0021734
0.00221307
0.00225302
0.00229323
0.0023337
0.00237442
0.00241538
0.00245659
0.00249803
0.00253968
0.00258155
0.00262361
0.00266587
0.0027083
0.00275089
0.00279363
0.0028365
0.00287949
0.00292259
0.00296577
0.00300902
0.00305232
0.00309566
0.00313901
0.00318236
0.00322569
0.00326898
0.0033122
0.00335535
0.00339839
0.00344131
0.00348409
0.00352671
0.00356915
0.00361138
0.0036534
0.00369518
0.0037367
0.00377794
0.0038189
0.00385954
0.00389986
0.00393982
0.00397943
0.00401864
0.00405746
0.00409585
0.00413379
0.00417127
0.00420826
0.00424474
0.00428068
0.00431608
0.00435089
0.00438509
0.00441865
0.00445155
0.00448375
0.00451521
0.00454591
0.00457581
0.00460486
0.00463302
0.00466026
0.00468652
0.00471177
0.00473596
0.00475904
0.00478096
0.00480168
0.0048213
0.0048397
0.00485668
0.00487218
0.00488617
0.00489871
0.00490966
0.00491889
0.00492641
0.00493222
0.00493633
0.00493874
0.00493947
0.00493851
0.00493588
0.00493161
0.00492572
0.00491825
0.00490924
0.00489875
0.00488683
0.00487356
0.00485901
0.00484327
0.00482641
0.00480853
0.00478974
0.00477013
0.00474982
0.00472892
0.00470755
0.00468583
0.00466388
0.00464184
0.00461984
0.00459799
0.00457642
0.00455524
0.00453455
0.00451445
0.004495
0.00447625
0.00445825
0.00444106
0.00442472
0.00440926
0.00439472
0.00438111
0.00436846
0.00435682
0.00434622
0.00433665
0.00432799
0.00431968
0.00431018
0.00429654
1.31319e-05
0.000118433
0.00024448
0.00035295
0.000442427
0.000515886
0.000576537
0.000627545
0.000671453
0.000710243
0.000745426
0.000778132
0.000809198
0.000839287
0.000868802
0.000898027
0.000927164
0.000956335
0.000985806
0.00101565
0.00104593
0.00107667
0.00110789
0.00113957
0.00117172
0.00120432
0.00123733
0.00127073
0.00130449
0.00133857
0.00137295
0.00140761
0.00144252
0.00147768
0.00151307
0.00154867
0.00158449
0.00162051
0.00165671
0.00169304
0.00172955
0.00176621
0.00180302
0.00184002
0.0018772
0.00191457
0.00195217
0.00198998
0.00202802
0.0020663
0.00210483
0.00214359
0.00218261
0.00222188
0.0022614
0.00230118
0.00234121
0.00238149
0.00242202
0.0024628
0.00250382
0.00254508
0.00258656
0.00262828
0.00267021
0.00271236
0.0027547
0.00279724
0.00283996
0.00288285
0.0029259
0.00296909
0.00301241
0.00305585
0.00309939
0.00314302
0.00318671
0.00323045
0.00327423
0.00331801
0.00336179
0.00340555
0.00344926
0.0034929
0.00353646
0.00357991
0.00362324
0.00366641
0.00370943
0.00375225
0.00379487
0.00383727
0.00387943
0.00392133
0.00396294
0.00400426
0.00404527
0.00408594
0.00412626
0.00416621
0.00420577
0.00424493
0.00428366
0.00432194
0.00435976
0.0043971
0.00443393
0.00447023
0.00450597
0.00454114
0.00457571
0.00460964
0.0046429
0.00467547
0.0047073
0.00473835
0.00476859
0.00479797
0.00482644
0.00485396
0.00488049
0.00490597
0.00493035
0.00495359
0.00497573
0.00499665
0.00501623
0.00503444
0.00505118
0.0050664
0.00508006
0.00509187
0.00510188
0.00511012
0.0051166
0.00512129
0.0051242
0.00512533
0.00512468
0.00512225
0.00511808
0.00511217
0.00510458
0.00509534
0.00508452
0.00507217
0.00505836
0.00504317
0.00502669
0.00500901
0.00499023
0.00497044
0.00494978
0.00492834
0.00490626
0.00488367
0.00486069
0.00483746
0.00481413
0.00479083
0.00476771
0.00474488
0.00472247
0.0047006
0.00467937
0.00465887
0.00463917
0.00462036
0.00460252
0.00458569
0.00456995
0.00455536
0.00454197
0.00452986
0.00451911
0.00450977
0.0045018
0.0044948
0.00448763
0.00447833
1.36911e-05
0.000120713
0.000249935
0.000362964
0.000457321
0.000535791
0.000601215
0.000656605
0.00070444
0.000746698
0.000784951
0.000820302
0.000853539
0.000885446
0.000916547
0.000947215
0.000977725
0.00100831
0.00103913
0.00107022
0.00110161
0.00113334
0.00116542
0.00119785
0.00123064
0.00126377
0.00129722
0.00133097
0.00136499
0.00139927
0.00143378
0.0014685
0.00150341
0.00153851
0.00157378
0.00160921
0.0016448
0.00168057
0.0017166
0.00175285
0.00178921
0.00182564
0.00186215
0.00189876
0.0019355
0.0019724
0.00200946
0.00204671
0.00208416
0.00212181
0.00215969
0.00219779
0.00223612
0.00227469
0.0023135
0.00235257
0.00239189
0.00243146
0.00247129
0.00251138
0.00255173
0.00259235
0.00263322
0.00267434
0.00271572
0.00275735
0.00279922
0.00284132
0.00288366
0.00292621
0.00296897
0.00301193
0.00305507
0.00309839
0.00314186
0.00318547
0.0032292
0.00327305
0.00331697
0.00336097
0.00340501
0.00344908
0.00349316
0.00353722
0.00358124
0.0036252
0.00366908
0.00371286
0.00375651
0.00380002
0.00384336
0.00388652
0.00392947
0.00397219
0.00401467
0.00405689
0.00409883
0.00414046
0.00418178
0.00422277
0.0042634
0.00430366
0.00434354
0.00438302
0.00442208
0.0044607
0.00449887
0.00453656
0.00457376
0.00461045
0.0046466
0.00468218
0.00471717
0.00475154
0.00478525
0.00481826
0.00485054
0.00488204
0.00491272
0.00494253
0.00497141
0.00499933
0.00502623
0.00505207
0.00507681
0.00510039
0.00512272
0.00514381
0.00516344
0.00518157
0.00519821
0.00521283
0.00522557
0.0052365
0.0052456
0.00525285
0.00525824
0.00526175
0.00526337
0.00526309
0.00526093
0.00525689
0.00525102
0.00524333
0.00523388
0.00522272
0.00520991
0.00519553
0.00517967
0.0051624
0.00514382
0.00512405
0.00510319
0.00508136
0.00505868
0.0050353
0.00501136
0.00498699
0.00496235
0.00493759
0.00491286
0.00488832
0.00486411
0.00484037
0.00481722
0.00479479
0.00477321
0.00475258
0.00473301
0.00471459
0.00469744
0.00468164
0.00466729
0.00465451
0.00464342
0.00463414
0.00462668
0.00462079
0.00461563
0.00461
1.4071e-05
0.000122006
0.000253311
0.000369851
0.000468251
0.00055101
0.000620626
0.000679931
0.00073129
0.000776514
0.000817248
0.000854768
0.000890081
0.000923964
0.000956811
0.000988992
0.0010208
0.00105243
0.00108402
0.00111567
0.00114745
0.00117941
0.00121159
0.00124399
0.00127663
0.00130951
0.0013426
0.00137591
0.00140941
0.0014431
0.00147695
0.00151095
0.00154508
0.00157934
0.00161372
0.00164821
0.00168279
0.00171751
0.00175243
0.00178759
0.00182293
0.00185829
0.00189368
0.00192905
0.00196447
0.00199999
0.00203564
0.00207144
0.00210742
0.00214359
0.00217997
0.00221657
0.0022534
0.00229048
0.00232782
0.00236543
0.00240333
0.00244151
0.00247999
0.00251878
0.00255789
0.0025973
0.00263704
0.0026771
0.00271749