/*--------------------------------*- C++ -*----------------------------------*\
  =========                 |
  \\      /  F ield         | OpenFOAM: The Open Source CFD Toolbox
   \\    /   O peration     | Website:  https://openfoam.org
    \\  /    A nd           | Version:  13
     \\/     M anipulation  |
\*---------------------------------------------------------------------------*/
FoamFile
{
    format      ascii;
    class       volScalarField;
    location    "200";
    object      p;
}
// * * * * * * * * * * * * * * * * * * * * * * * * * * * * * * * * * * * * * //

dimensions      [0 2 -2 0 0 0 0];

internalField   nonuniform List<scalar> 
12225
(
-4.83138
-5.7504
-6.06167
-6.13345
-6.21548
-6.31573
-6.40372
-6.47904
-6.54963
-6.6181
-6.68406
-6.74791
-6.81118
-6.87473
-6.9408
-7.01278
-7.09603
-7.20867
-5.09347
-5.81242
-6.06602
-6.12709
-6.20407
-6.30056
-6.38679
-6.46148
-6.53137
-6.59887
-6.66376
-6.72666
-6.78857
-6.85083
-6.91526
-6.98411
-7.06104
-7.13765
-5.25574
-5.80257
-6.0389
-6.11726
-6.20065
-6.29658
-6.38225
-6.45683
-6.52635
-6.5931
-6.65714
-6.71924
-6.78025
-6.84169
-6.90443
-6.96968
-7.03669
-7.09415
-5.38745
-5.8059
-6.03514
-6.12337
-6.20606
-6.2988
-6.38258
-6.45605
-6.52507
-6.59123
-6.65471
-6.7162
-6.77677
-6.83756
-6.89862
-6.95991
-7.01917
-7.06981
-5.50637
-5.82182
-6.04063
-6.13334
-6.21268
-6.30192
-6.38419
-6.45631
-6.52453
-6.59009
-6.65298
-6.71361
-6.77328
-6.83268
-6.89123
-6.9483
-7.00158
-7.04681
-5.61634
-5.84174
-6.04558
-6.14246
-6.22007
-6.30607
-6.38687
-6.45801
-6.52487
-6.58938
-6.6518
-6.71123
-6.76907
-6.82669
-6.8828
-6.93636
-6.98514
-7.02641
-5.71147
-5.87164
-6.05196
-6.15159
-6.22826
-6.31053
-6.38927
-6.45961
-6.52543
-6.58887
-6.65033
-6.70883
-6.76508
-6.82043
-6.87395
-6.92457
-6.97037
-7.00864
-5.79393
-5.90765
-6.06241
-6.16191
-6.23736
-6.31564
-6.39182
-6.46106
-6.52577
-6.58798
-6.64801
-6.70539
-6.76039
-6.81375
-6.86491
-6.91289
-6.95638
-6.99341
-5.86598
-5.94709
-6.07712
-6.17338
-6.24721
-6.3215
-6.39481
-6.46258
-6.52598
-6.58678
-6.64533
-6.70136
-6.75494
-6.8064
-6.85536
-6.90101
-6.94244
-6.97857
-5.92928
-5.98782
-6.09546
-6.18601
-6.25773
-6.32818
-6.39833
-6.46426
-6.52616
-6.58542
-6.6424
-6.69694
-6.74897
-6.7986
-6.84556
-6.88923
-6.92904
-6.96437
-5.98525
-6.02819
-6.11656
-6.19979
-6.26879
-6.33559
-6.40239
-6.46616
-6.52636
-6.58395
-6.63929
-6.69222
-6.74264
-6.79053
-6.83566
-6.87764
-6.91612
-6.95071
-6.03091
-6.064
-6.13761
-6.21339
-6.27933
-6.34289
-6.40657
-6.4681
-6.52658
-6.58255
-6.6363
-6.6877
-6.73662
-6.78297
-6.82658
-6.86719
-6.9046
-6.93853
-6.07149
-6.09778
-6.1591
-6.22744
-6.28999
-6.35041
-6.41099
-6.47016
-6.52683
-6.58113
-6.63326
-6.68312
-6.73056
-6.77544
-6.81766
-6.85703
-6.89347
-6.92678
-6.11255
-6.13345
-6.18361
-6.24388
-6.30222
-6.35913
-6.41627
-6.47265
-6.52712
-6.57945
-6.62972
-6.67781
-6.72357
-6.76688
-6.80762
-6.8457
-6.88111
-6.91374
-6.15273
-6.1694
-6.2101
-6.2623
-6.31571
-6.36877
-6.42224
-6.47547
-6.52735
-6.57744
-6.6256
-6.67173
-6.71566
-6.75727
-6.79648
-6.83324
-6.86758
-6.89942
-6.19002
-6.20346
-6.23667
-6.28148
-6.32966
-6.37867
-6.4284
-6.47827
-6.52731
-6.57491
-6.6208
-6.66482
-6.70682
-6.74667
-6.78432
-6.81973
-6.85296
-6.88395
-6.22151
-6.23264
-6.26037
-6.29912
-6.34245
-6.38754
-6.43371
-6.4803
-6.52644
-6.57148
-6.61505
-6.65694
-6.69699
-6.7351
-6.7712
-6.80527
-6.83736
-6.86747
-6.24277
-6.25247
-6.27681
-6.31153
-6.35125
-6.39321
-6.43644
-6.48025
-6.52385
-6.56656
-6.60799
-6.64791
-6.68615
-6.72263
-6.75727
-6.79008
-6.82107
-6.85028
-6.24657
-6.2559
-6.27945
-6.31309
-6.35149
-6.39196
-6.43359
-6.47577
-6.51773
-6.55883
-6.59868
-6.63709
-6.67392
-6.70909
-6.74255
-6.77431
-6.80439
-6.83285
-6.22559
-6.23636
-6.26313
-6.30008
-6.34061
-6.38218
-6.42443
-6.46694
-6.50891
-6.54974
-6.58915
-6.62702
-6.66326
-6.69782
-6.73067
-6.76186
-6.79139
-6.81937
-6.19243
-6.20592
-6.23887
-6.28186
-6.32618
-6.37001
-6.41401
-6.45787
-6.50068
-6.54194
-6.58152
-6.6194
-6.65552
-6.68988
-6.72251
-6.75344
-6.78274
-6.81048
-6.1478
-6.16638
-6.20972
-6.26136
-6.31026
-6.35689
-6.40336
-6.44914
-6.49316
-6.53514
-6.57518
-6.61331
-6.64953
-6.68387
-6.71643
-6.74727
-6.77645
-6.80407
-6.09263
-6.12032
-6.17949
-6.24144
-6.29458
-6.34419
-6.39357
-6.44146
-6.48674
-6.52954
-6.57014
-6.60862
-6.64498
-6.67939
-6.71198
-6.74282
-6.77194
-6.79946
-6.02644
-6.07049
-6.15188
-6.22396
-6.28014
-6.3329
-6.38536
-6.43514
-6.48154
-6.52516
-6.56637
-6.60516
-6.6416
-6.67601
-6.70866
-6.73958
-6.76873
-6.7963
-5.94757
-6.02071
-6.13023
-6.20964
-6.26731
-6.32355
-6.37895
-6.43011
-6.47739
-6.52179
-6.56362
-6.60268
-6.63913
-6.67358
-6.70626
-6.73711
-6.76608
-6.79352
-5.8532
-5.97628
-6.11656
-6.19824
-6.25642
-6.31605
-6.37383
-6.42593
-6.47391
-6.51878
-6.56075
-6.59947
-6.63572
-6.67069
-6.70417
-6.73546
-6.76447
-6.79131
-5.7403
-5.94289
-6.11
-6.18824
-6.2479
-6.30991
-6.36906
-6.42261
-6.4717
-6.51692
-6.5588
-6.59775
-6.63463
-6.67002
-6.70357
-6.73482
-6.76381
-6.79065
-5.61245
-5.92335
-6.10781
-6.17683
-6.23864
-6.30483
-6.3663
-6.42135
-6.4712
-6.51701
-6.5595
-6.59916
-6.63646
-6.67178
-6.70513
-6.73642
-6.76551
-6.79239
-5.45612
-5.92131
-6.12677
-6.18256
-6.23795
-6.30493
-6.36656
-6.42104
-6.47063
-6.5166
-6.55941
-6.59936
-6.63691
-6.67241
-6.70599
-6.73763
-6.76717
-6.79442
-5.24274
-5.88126
-6.13316
-6.19638
-6.25319
-6.32209
-6.38463
-6.43906
-6.48845
-6.5343
-6.57703
-6.61676
-6.65419
-6.68962
-6.72323
-6.75499
-6.78507
-6.81454
-7.603
-7.60324
-7.60396
-7.60519
-7.60694
-7.60915
-7.61182
-7.61505
-7.61892
-7.6235
-7.62879
-7.63474
-7.64145
-7.64889
-7.65703
-7.66586
-7.67535
-7.68551
-7.69629
-7.70771
-7.7198
-7.73263
-7.74609
-7.76007
-7.7747
-7.79013
-7.80618
-7.82296
-7.84104
-7.86075
-7.88151
-7.90293
-7.92443
-7.94571
-7.96694
-7.98856
-8.01138
-8.03577
-8.0609
-8.08637
-8.11212
-8.13814
-8.16439
-8.19086
-8.21749
-8.24428
-8.27116
-8.29812
-8.32507
-8.35201
-8.37883
-8.4055
-8.43192
-8.45803
-8.48372
-8.50896
-8.5336
-8.55758
-8.58073
-8.60292
-8.62396
-8.64377
-8.66225
-8.6794
-8.69506
-8.70902
-8.72092
-8.73057
-8.73777
-8.74248
-8.74448
-8.74362
-8.73964
-8.73238
-8.72157
-8.70704
-8.68853
-8.66586
-8.63874
-8.60702
-8.57041
-8.52873
-8.48174
-8.42924
-8.37098
-8.30678
-8.23638
-8.15961
-8.07625
-7.98614
-7.88913
-7.78503
-7.67367
-7.5549
-7.42858
-7.29459
-7.15293
-7.00353
-6.84629
-6.68119
-6.5082
-6.32734
-6.13862
-5.9421
-5.73787
-5.52604
-5.30676
-5.08021
-4.84659
-4.60614
-4.35913
-4.10585
-3.84662
-3.5818
-3.31177
-3.03692
-2.75771
-2.47458
-2.18798
-1.89839
-1.6063
-1.31221
-1.01666
-0.72016
-0.423213
-0.126329
0.169992
0.465299
0.759134
1.05105
1.34062
1.62743
1.91112
2.19133
2.46775
2.7401
3.00813
3.27166
3.53054
3.78461
4.03375
4.2779
4.51704
4.75122
4.98049
5.20496
5.42476
5.64006
5.85106
6.05801
6.26115
6.46079
6.65724
6.85084
7.04196
7.231
7.41838
7.60452
7.78985
7.97479
8.15972
8.34513
8.53163
8.71979
8.91002
9.10269
9.29802
9.49585
9.69629
9.89978
10.1066
10.3166
10.5297
10.7456
10.9639
11.184
11.4059
11.6294
11.8635
12.1
-7.60003
-7.6009
-7.60206
-7.60293
-7.6036
-7.60446
-7.60576
-7.60742
-7.60921
-7.61117
-7.61378
-7.61747
-7.62229
-7.62814
-7.63496
-7.6427
-7.65131
-7.66076
-7.67099
-7.68198
-7.69369
-7.70612
-7.71922
-7.73307
-7.74773
-7.7632
-7.77949
-7.79683
-7.81536
-7.83484
-7.8551
-7.87609
-7.89762
-7.91983
-7.94268
-7.96625
-7.99052
-8.01515
-8.03996
-8.06501
-8.09031
-8.11586
-8.14164
-8.16764
-8.19382
-8.22016
-8.24661
-8.27315
-8.2997
-8.32624
-8.3527
-8.37901
-8.4051
-8.43089
-8.4563
-8.48126
-8.50566
-8.52941
-8.55235
-8.57436
-8.5953
-8.61511
-8.63378
-8.65127
-8.66725
-8.68116
-8.69273
-8.70224
-8.70973
-8.71485
-8.71728
-8.71687
-8.7134
-8.70668
-8.6965
-8.68265
-8.66489
-8.64302
-8.61681
-8.58603
-8.55046
-8.50989
-8.46408
-8.41283
-8.3559
-8.2931
-8.22419
-8.14898
-8.06725
-7.97886
-7.88364
-7.78143
-7.67204
-7.55533
-7.4312
-7.29956
-7.1602
-7.01306
-6.85812
-6.69533
-6.52466
-6.34613
-6.15976
-5.9656
-5.76372
-5.55424
-5.33729
-5.11305
-4.8817
-4.64349
-4.39865
-4.14749
-3.8903
-3.62744
-3.35927
-3.08619
-2.80863
-2.52703
-2.24184
-1.95352
-1.66257
-1.36948
-1.07479
-0.779013
-0.482642
-0.186179
0.109867
0.405036
0.698873
0.990934
1.28078
1.56802
1.85226
2.13315
2.41036
2.68361
2.95264
3.21727
3.4773
3.73261
3.98303
4.2285
4.46899
4.70454
4.93517
5.161
5.38213
5.59874
5.811
6.01916
6.22344
6.42416
6.62158
6.81607
7.00797
7.19766
7.38554
7.57203
7.75754
7.94251
8.12739
8.31286
8.49963
8.68799
8.87781
9.06965
9.26402
9.46127
9.66048
9.8622
10.0674
10.2758
10.4871
10.7009
10.9177
11.1371
11.3593
11.5839
11.824
12.0549
-7.59302
-7.59526
-7.59824
-7.60021
-7.60127
-7.60218
-7.60339
-7.60509
-7.60728
-7.60996
-7.61323
-7.61724
-7.62207
-7.62775
-7.63426
-7.64162
-7.6498
-7.65881
-7.66862
-7.67921
-7.69055
-7.70265
-7.71545
-7.72899
-7.74334
-7.75853
-7.77457
-7.79152
-7.8094
-7.82809
-7.84736
-7.86714
-7.88731
-7.90791
-7.92917
-7.95119
-7.97403
-7.99752
-8.02144
-8.04571
-8.07029
-8.09517
-8.12031
-8.14569
-8.17127
-8.19703
-8.22293
-8.24892
-8.27496
-8.301
-8.32698
-8.35284
-8.37851
-8.40391
-8.42896
-8.45358
-8.47768
-8.50116
-8.52388
-8.54572
-8.56657
-8.58636
-8.60504
-8.62247
-8.63828
-8.65207
-8.66374
-8.67353
-8.68136
-8.68686
-8.68974
-8.68981
-8.68689
-8.68079
-8.6713
-8.65821
-8.6413
-8.62036
-8.59515
-8.56547
-8.53108
-8.49177
-8.44732
-8.3975
-8.34211
-8.28092
-8.21372
-8.1403
-8.06047
-7.97405
-7.88088
-7.7808
-7.67362
-7.55921
-7.43744
-7.30819
-7.17133
-7.02676
-6.87443
-6.71429
-6.54632
-6.37052
-6.1869
-5.99551
-5.79642
-5.58972
-5.37556
-5.15408
-4.92547
-4.68996
-4.44778
-4.1992
-3.94454
-3.68412
-3.4183
-3.14747
-2.87203
-2.59243
-2.30911
-2.02253
-1.73315
-1.4415
-1.14809
-0.853453
-0.558065
-0.26241
0.0330088
0.327701
0.621214
0.913111
1.20296
1.49035
1.77489
2.05624
2.33404
2.60801
2.87788
3.14345
3.40454
3.66097
3.9126
4.15934
4.40116
4.63805
4.87007
5.09726
5.31977
5.53771
5.75128
5.96068
6.16616
6.36798
6.56643
6.76183
6.95454
7.1449
7.33332
7.52018
7.70593
7.89102
8.07598
8.26141
8.44794
8.63564
8.82446
9.01502
9.20796
9.40368
9.6017
9.80205
10.0057
10.2125
10.4222
10.6345
10.8498
11.0684
11.2908
11.5157
11.7588
11.9759
-7.58435
-7.58782
-7.59309
-7.59689
-7.59916
-7.60084
-7.60252
-7.60449
-7.60691
-7.60988
-7.61347
-7.61774
-7.62271
-7.62842
-7.63488
-7.64209
-7.65006
-7.6588
-7.6683
-7.67854
-7.68953
-7.70124
-7.71368
-7.72685
-7.74078
-7.75553
-7.7711
-7.78754
-7.80487
-7.82302
-7.84184
-7.86125
-7.88114
-7.90151
-7.92242
-7.94396
-7.96613
-7.98887
-8.01208
-8.0357
-8.05967
-8.08398
-8.10858
-8.13346
-8.15856
-8.18387
-8.20933
-8.23492
-8.26058
-8.28626
-8.3119
-8.33745
-8.36283
-8.38797
-8.41279
-8.43721
-8.46113
-8.48445
-8.50705
-8.52883
-8.54964
-8.56941
-8.58803
-8.60533
-8.62108
-8.63505
-8.64715
-8.65734
-8.66546
-8.67124
-8.67447
-8.67496
-8.67251
-8.66693
-8.65801
-8.64555
-8.62932
-8.60912
-8.58471
-8.55589
-8.52242
-8.48409
-8.44067
-8.39195
-8.33772
-8.27775
-8.21184
-8.13977
-8.06134
-7.97639
-7.88476
-7.78626
-7.68073
-7.568
-7.44795
-7.32045
-7.18538
-7.04264
-6.89218
-6.73395
-6.5679
-6.39405
-6.21239
-6.02297
-5.82585
-5.62114
-5.40895
-5.18943
-4.96277
-4.72917
-4.48887
-4.24213
-3.98926
-3.73056
-3.4664
-3.19715
-2.92322
-2.64504
-2.36303
-2.07765
-1.78939
-1.49874
-1.20622
-0.912361
-0.61765
-0.322556
-0.0275568
0.266835
0.560158
0.851979
1.14187
1.42942
1.71424
1.99597
2.27426
2.54882
2.81939
3.08574
3.34768
3.60503
3.85764
4.10541
4.34832
4.58633
4.81949
5.04784
5.2715
5.49059
5.70529
5.91578
6.12231
6.32511
6.52449
6.72073
6.91419
7.10519
7.29415
7.48141
7.66742
7.85263
8.0376
8.22281
8.40874
8.59548
8.78317
8.97244
9.16387
9.35787
9.55423
9.75301
9.9549
10.1599
10.3679
10.5786
10.7925
11.0096
11.2308
11.4539
11.694
11.8973
-7.57675
-7.58154
-7.58885
-7.59443
-7.59806
-7.6008
-7.60328
-7.60584
-7.6087
-7.612
-7.61585
-7.62031
-7.62543
-7.63122
-7.6377
-7.64489
-7.6528
-7.66144
-7.67081
-7.68091
-7.69174
-7.70329
-7.71557
-7.72859
-7.74235
-7.75688
-7.7722
-7.78831
-7.80522
-7.82289
-7.84123
-7.8602
-7.87973
-7.89981
-7.92043
-7.94161
-7.96333
-7.98557
-8.00826
-8.03137
-8.05487
-8.07872
-8.1029
-8.12737
-8.15209
-8.17705
-8.20219
-8.22748
-8.25285
-8.27828
-8.3037
-8.32905
-8.35425
-8.37924
-8.40393
-8.42826
-8.4521
-8.47538
-8.49797
-8.51977
-8.54066
-8.56051
-8.5792
-8.59658
-8.61247
-8.62668
-8.6391
-8.64959
-8.65798
-8.66407
-8.66766
-8.66855
-8.66655
-8.66146
-8.65306
-8.64116
-8.62554
-8.60598
-8.58225
-8.55415
-8.52145
-8.48392
-8.44135
-8.39352
-8.34021
-8.2812
-8.21629
-8.14527
-8.06792
-7.98409
-7.89361
-7.79629
-7.69196
-7.58047
-7.46166
-7.33541
-7.20161
-7.06016
-6.911
-6.75407
-6.58934
-6.41679
-6.23644
-6.04832
-5.8525
-5.64906
-5.43813
-5.21985
-4.99441
-4.76199
-4.52283
-4.2772
-4.02538
-3.76769
-3.50448
-3.23613
-2.96302
-2.68559
-2.40427
-2.1195
-1.83179
-1.54162
-1.24951
-0.955981
-0.661539
-0.36665
-0.0717802
0.222565
0.51591
0.807818
1.09787
1.38564
1.67075
1.95281
2.23151
2.50654
2.77762
3.04452
3.30704
3.565
3.81824
4.06668
4.31026
4.54897
4.78281
5.01187
5.2362
5.45597
5.67131
5.88242
6.08952
6.29286
6.49272
6.6894
6.88322
7.07451
7.26366
7.45105
7.63709
7.82224
8.00695
8.19168
8.37681
8.56259
8.74926
8.93741
9.12753
9.32
9.51482
9.71216
9.91253
10.116
10.3225
10.5318
10.7444
10.96
11.1795
11.4
11.6354
11.826
-7.5719
-7.57792
-7.58678
-7.59373
-7.59856
-7.60233
-7.60568
-7.60896
-7.6124
-7.61618
-7.62042
-7.6252
-7.63056
-7.63655
-7.64317
-7.65046
-7.65843
-7.66709
-7.67646
-7.68654
-7.69732
-7.70883
-7.72105
-7.73399
-7.74766
-7.76206
-7.77719
-7.79306
-7.80964
-7.82692
-7.84485
-7.8634
-7.88252
-7.90222
-7.92247
-7.94328
-7.96461
-7.98644
-8.00872
-8.03145
-8.05457
-8.07807
-8.10192
-8.12608
-8.15052
-8.17522
-8.20013
-8.2252
-8.2504
-8.27567
-8.30095
-8.32618
-8.3513
-8.37623
-8.40089
-8.42521
-8.44907
-8.47239
-8.49505
-8.51694
-8.53795
-8.55794
-8.57679
-8.59434
-8.61044
-8.62493
-8.63764
-8.64844
-8.65715
-8.66357
-8.66752
-8.66881
-8.66723
-8.66258
-8.65467
-8.64327
-8.62817
-8.60917
-8.58602
-8.55853
-8.52646
-8.48959
-8.44771
-8.40058
-8.34801
-8.28976
-8.22563
-8.1554
-8.07888
-7.99589
-7.90626
-7.80981
-7.70636
-7.59574
-7.47782
-7.35246
-7.21955
-7.079
-6.93073
-6.77468
-6.61082
-6.43914
-6.25963
-6.07235
-5.87734
-5.67469
-5.46453
-5.24699
-5.02224
-4.7905
-4.55197
-4.30693
-4.05566
-3.79847
-3.53571
-3.26776
-2.995
-2.71786
-2.43677
-2.15219
-1.86461
-1.57454
-1.28248
-0.988959
-0.694479
-0.399529
-0.104569
0.189914
0.483434
0.775555
1.06585
1.35389
1.63929
1.92168
2.20071
2.47609
2.74753
3.01481
3.27769
3.536
3.78959
4.03837
4.28228
4.52131
4.75545
4.98477
5.20934
5.42931
5.64482
5.85606
6.06324
6.26662
6.46644
6.66304
6.8567
7.0478
7.23667
7.42372
7.60933
7.79397
7.97806
8.16202
8.34622
8.53097
8.71661
8.90367
9.0926
9.28374
9.47723
9.6733
9.87238
10.0746
10.2799
10.4881
10.6995
10.9138
11.1317
11.3494
11.5804
11.76
-7.57047
-7.57734
-7.58727
-7.59519
-7.60096
-7.60562
-7.60976
-7.6137
-7.61771
-7.62197
-7.62661
-7.63172
-7.63736
-7.64358
-7.6504
-7.65785
-7.66594
-7.6747
-7.68413
-7.69424
-7.70504
-7.71654
-7.72873
-7.74162
-7.7552
-7.76948
-7.78446
-7.80012
-7.81646
-7.83346
-7.85108
-7.86931
-7.88811
-7.9075
-7.92744
-7.94792
-7.96893
-7.99044
-8.01242
-8.03485
-8.0577
-8.08095
-8.10456
-8.12851
-8.15276
-8.1773
-8.20206
-8.22702
-8.25212
-8.27732
-8.30256
-8.32778
-8.3529
-8.37786
-8.40258
-8.42696
-8.45092
-8.47436
-8.49716
-8.51922
-8.5404
-8.5606
-8.57966
-8.59745
-8.61381
-8.62858
-8.6416
-8.65272
-8.66175
-8.66851
-8.67282
-8.67448
-8.67329
-8.66905
-8.66156
-8.6506
-8.63596
-8.61742
-8.59476
-8.56776
-8.5362
-8.49986
-8.45851
-8.41193
-8.35992
-8.30224
-8.23869
-8.16905
-8.09313
-8.01074
-7.92173
-7.82588
-7.72303
-7.61302
-7.49569
-7.37092
-7.2386
-7.09863
-6.95092
-6.79543
-6.6321
-6.46093
-6.28193
-6.09511
-5.90055
-5.69833
-5.48856
-5.27138
-5.04697
-4.81551
-4.57724
-4.33242
-4.08132
-3.82426
-3.56159
-3.29368
-3.02092
-2.74373
-2.46255
-2.17785
-1.89012
-1.59987
-1.30761
-1.01386
-0.719131
-0.423929
-0.12872
0.166027
0.459833
0.752252
1.04285
1.33121
1.61691
1.8996
2.17893
2.45459
2.72631
2.99382
3.25693
3.51543
3.7692
4.01811
4.26213
4.50121
4.73539
4.96469
5.18923
5.40908
5.62443
5.83544
6.04236
6.24538
6.44482
6.64093
6.83406
7.02453
7.21274
7.39903
7.58385
7.7676
7.95073
8.13364
8.31671
8.50029
8.68477
8.87062
9.05831
9.24816
9.44041
9.6353
9.83322
10.0343
10.2385
10.4458
10.6562
10.8694
11.0856
11.3007
11.5279
11.6982
-7.57269
-7.57987
-7.59033
-7.59887
-7.60533
-7.61068
-7.61545
-7.61995
-7.62445
-7.62913
-7.63413
-7.63955
-7.64545
-7.65189
-7.6589
-7.6665
-7.67472
-7.68358
-7.69308
-7.70325
-7.71407
-7.72557
-7.73773
-7.75057
-7.76408
-7.77826
-7.7931
-7.8086
-7.82474
-7.84152
-7.85891
-7.8769
-7.89547
-7.91462
-7.93432
-7.95457
-7.97535
-7.99663
-8.0184
-8.04063
-8.0633
-8.08639
-8.10986
-8.13369
-8.15785
-8.18231
-8.20703
-8.23197
-8.25707
-8.28229
-8.30757
-8.33286
-8.35807
-8.38314
-8.40798
-8.43252
-8.45664
-8.48027
-8.50327
-8.52554
-8.54696
-8.5674
-8.58672
-8.60478
-8.62142
-8.63649
-8.64982
-8.66126
-8.67061
-8.6777
-8.68235
-8.68435
-8.68352
-8.67964
-8.67251
-8.66192
-8.64765
-8.62949
-8.60722
-8.58061
-8.54945
-8.5135
-8.47255
-8.42638
-8.37477
-8.3175
-8.25435
-8.18512
-8.1096
-8.02762
-7.93899
-7.84354
-7.74107
-7.63142
-7.51445
-7.39003
-7.25803
-7.11838
-6.97097
-6.81575
-6.65268
-6.48175
-6.30295
-6.11632
-5.92191
-5.71982
-5.51015
-5.29304
-5.06866
-4.83721
-4.5989
-4.35401
-4.1028
-3.84559
-3.58274
-3.3146
-3.04157
-2.76408
-2.48258
-2.19754
-1.90945
-1.61883
-1.32619
-1.03205
-0.736927
-0.441346
-0.145786
0.1493
0.443448
0.736201
1.02713
1.3158
1.6018
1.88476
2.16434
2.44022
2.71211
2.97977
3.24298
3.50154
3.75535
4.00426
4.24823
4.48722
4.72126
4.95036
5.17464
5.39418
5.60916
5.81974
6.02615
6.22861
6.4274
6.6228
6.81516
7.00478
7.19207
7.37739
7.56116
7.7438
7.92575
8.10741
8.28919
8.47146
8.65463
8.83917
9.02553
9.21407
9.40506
9.5988
9.7956
9.99562
10.1989
10.4052
10.6147
10.8267
11.0413
11.254
11.4779
11.6407
-7.57838
-7.5855
-7.59596
-7.60472
-7.61156
-7.61735
-7.62256
-7.62749
-7.63236
-7.63737
-7.64266
-7.64832
-7.65443
-7.66105
-7.66821
-7.67593
-7.68425
-7.69319
-7.70274
-7.71294
-7.72377
-7.73526
-7.74739
-7.76018
-7.77362
-7.78771
-7.80244
-7.81781
-7.8338
-7.85042
-7.86765
-7.88547
-7.90388
-7.92286
-7.9424
-7.96249
-7.98312
-8.00427
-8.02592
-8.04804
-8.07062
-8.09364
-8.11706
-8.14086
-8.16502
-8.18949
-8.21425
-8.23924
-8.26442
-8.28975
-8.31515
-8.34057
-8.36594
-8.39119
-8.41623
-8.44097
-8.46531
-8.48917
-8.51242
-8.53495
-8.55664
-8.57735
-8.59695
-8.61529
-8.63222
-8.64759
-8.66123
-8.67296
-8.68262
-8.69001
-8.69496
-8.69726
-8.69673
-8.69315
-8.68632
-8.67602
-8.66205
-8.64418
-8.62219
-8.59586
-8.56498
-8.52931
-8.48863
-8.44272
-8.39137
-8.33435
-8.27146
-8.20247
-8.12718
-8.04543
-7.95701
-7.86176
-7.75947
-7.64999
-7.53318
-7.40889
-7.27702
-7.13746
-6.99013
-6.83497
-6.67193
-6.501
-6.32218
-6.1355
-5.94102
-5.73882
-5.52902
-5.31174
-5.08716
-4.85548
-4.61691
-4.37172
-4.12018
-3.86261
-3.59936
-3.33079
-3.05731
-2.77934
-2.49734
-2.21179
-1.9232
-1.63208
-1.33895
-1.04431
-0.748716
-0.452687
-0.156727
0.138731
0.433228
0.72631
1.01754
1.30649
1.59273
1.87589
2.15564
2.43165
2.70363
2.97132
3.2345
3.49302
3.7467
3.99546
4.23921
4.47795
4.71165
4.94039
5.16421
5.38326
5.59766
5.80762
6.01332
6.21504
6.413
6.60754
6.79894
6.98758
7.17379
7.358
7.54058
7.722
7.90264
8.08296
8.26336
8.44426
8.62606
8.80925
8.99426
9.1815
9.37127
9.56388
9.75962
9.95865
10.161
10.3665
10.575
10.7858
10.999
11.2094
11.4305
11.5874
-7.5869
-7.5937
-7.60375
-7.61238
-7.61931
-7.62531
-7.63076
-7.63595
-7.64106
-7.6463
-7.65178
-7.65761
-7.66386
-7.6706
-7.67785
-7.68565
-7.69403
-7.70301
-7.71259
-7.72279
-7.73361
-7.74507
-7.75717
-7.7699
-7.78327
-7.79728
-7.81192
-7.82719
-7.84308
-7.85959
-7.8767
-7.89442
-7.91272
-7.93161
-7.95106
-7.97108
-7.99164
-8.01274
-8.03435
-8.05645
-8.07903
-8.10206
-8.12551
-8.14937
-8.1736
-8.19817
-8.22303
-8.24816
-8.27349
-8.29898
-8.32457
-8.35019
-8.37577
-8.40124
-8.42652
-8.45151
-8.47611
-8.50023
-8.52375
-8.54656
-8.56852
-8.58951
-8.60939
-8.62801
-8.64522
-8.66086
-8.67476
-8.68676
-8.69667
-8.70432
-8.70951
-8.71205
-8.71175
-8.70839
-8.70177
-8.69167
-8.6779
-8.66021
-8.6384
-8.61225
-8.58152
-8.546
-8.50547
-8.4597
-8.40847
-8.35156
-8.28877
-8.21987
-8.14467
-8.06298
-7.97462
-7.8794
-7.77714
-7.66766
-7.55084
-7.42652
-7.29459
-7.15496
-7.00753
-6.85225
-6.68906
-6.51796
-6.33893
-6.15202
-5.95728
-5.7548
-5.54468
-5.32706
-5.10211
-4.87002
-4.63102
-4.38536
-4.13333
-3.87524
-3.61144
-3.3423
-3.06823
-2.78965
-2.50703
-2.22088
-1.93169
-1.63998
-1.34628
-1.0511
-0.754994
-0.4585
-0.162118
0.13371
0.428535
0.721919
1.01342
1.3026
1.58903
1.87233
2.15216
2.4282
2.70014
2.96774
3.23077
3.48907
3.74248
3.99091
4.23426
4.47254
4.70573
4.93389
5.15707
5.37542
5.58907
5.79823
6.00307
6.20386
6.40085
6.59436
6.78469
6.9722
7.15724
7.34022
7.52153
7.70162
7.88091
8.05983
8.23882
8.41831
8.59873
8.78056
8.96425
9.15021
9.33881
9.53033
9.72508
9.92318
10.1247
10.3293
10.537
10.7467
10.9585
11.1668
11.3856
11.5379
-7.59752
-7.60379
-7.61315
-7.62136
-7.62815
-7.63413
-7.63965
-7.64493
-7.65015
-7.65549
-7.66107
-7.66699
-7.67331
-7.68009
-7.68738
-7.6952
-7.70359
-7.71256
-7.72212
-7.7323
-7.74308
-7.7545
-7.76654
-7.77922
-7.79252
-7.80647
-7.82104
-7.83624
-7.85207
-7.86851
-7.88557
-7.90323
-7.9215
-7.94035
-7.95979
-7.9798
-8.00038
-8.0215
-8.04315
-8.06532
-8.08797
-8.11109
-8.13465
-8.15863
-8.183
-8.20773
-8.23278
-8.25809
-8.28363
-8.30934
-8.33515
-8.36101
-8.38684
-8.41257
-8.43811
-8.46336
-8.48823
-8.51262
-8.5364
-8.55947
-8.58169
-8.60294
-8.62306
-8.64192
-8.65936
-8.67521
-8.68933
-8.70152
-8.71162
-8.71943
-8.72478
-8.72747
-8.7273
-8.72406
-8.71754
-8.70755
-8.69385
-8.67624
-8.65449
-8.62838
-8.59769
-8.5622
-8.52168
-8.47591
-8.42468
-8.36775
-8.30493
-8.23599
-8.16073
-8.07897
-7.99053
-7.89521
-7.79284
-7.68323
-7.56625
-7.44176
-7.30965
-7.1698
-7.02214
-6.8666
-6.70313
-6.5317
-6.35234
-6.16507
-5.96994
-5.76704
-5.55647
-5.33839
-5.11294
-4.88033
-4.64078
-4.39455
-4.14193
-3.88322
-3.61877
-3.34897
-3.07422
-2.79496
-2.51167
-2.22486
-1.93502
-1.64269
-1.34838
-1.05265
-0.756022
-0.459059
-0.162247
0.133946
0.429075
0.722709
1.01443
1.30377
1.59031
1.87365
2.15345
2.42937
2.70114
2.96848
3.23119
3.48908
3.74204
3.98992
4.2327
4.47032
4.70281
4.93018
5.15255
5.37
5.58273
5.79087
5.99469
6.19438
6.39026
6.58259
6.77172
6.95797
7.14174
7.32339
7.50337
7.68207
7.85996
8.03747
8.21505
8.39313
8.5722
8.7527
8.93513
9.1199
9.30739
9.49792
9.69176
9.88904
10.0898
10.2937
10.5005
10.7093
10.9198
11.1264
11.3431
11.4919
-7.60952
-7.61513
-7.62357
-7.63116
-7.63759
-7.64337
-7.64877
-7.65399
-7.6592
-7.66453
-7.6701
-7.67601
-7.68231
-7.68907
-7.69632
-7.70411
-7.71245
-7.72137
-7.73088
-7.741
-7.75173
-7.76309
-7.77507
-7.7877
-7.80096
-7.81486
-7.82939
-7.84456
-7.86036
-7.8768
-7.89385
-7.91153
-7.92982
-7.94871
-7.9682
-7.98828
-8.00893
-8.03014
-8.05188
-8.07417
-8.09695
-8.12023
-8.14396
-8.16814
-8.19271
-8.21765
-8.24291
-8.26845
-8.29422
-8.32017
-8.34623
-8.37234
-8.39842
-8.4244
-8.45019
-8.47569
-8.5008
-8.52542
-8.54942
-8.5727
-8.59512
-8.61656
-8.63685
-8.65587
-8.67345
-8.68943
-8.70365
-8.71594
-8.72611
-8.73399
-8.73938
-8.7421
-8.74194
-8.73869
-8.73216
-8.72214
-8.7084
-8.69073
-8.66891
-8.64272
-8.61194
-8.57634
-8.53571
-8.48982
-8.43846
-8.38139
-8.31842
-8.24932
-8.17389
-8.09194
-8.0033
-7.90778
-7.80518
-7.69533
-7.5781
-7.45334
-7.32093
-7.18078
-7.03278
-6.87687
-6.71302
-6.5412
-6.36141
-6.17369
-5.97809
-5.77469
-5.5636
-5.34497
-5.11896
-4.88577
-4.64562
-4.39877
-4.1455
-3.88613
-3.62101
-3.35051
-3.07505
-2.79509
-2.51111
-2.2236
-1.93309
-1.64011
-1.3452
-1.0489
-0.751771
-0.454347
-0.157132
0.139376
0.434736
0.728526
1.02034
1.30974
1.59625
1.87949
2.15911
2.43477
2.70618
2.97309
3.2353
3.49262
3.74492
3.9921
4.2341
4.47088
4.70247
4.92889
5.15025
5.36665
5.57826
5.78525
5.98787
6.18633
6.38094
6.57197
6.75976
6.94467
7.12706
7.30732
7.48588
7.66317
7.83963
8.01571
8.19187
8.36859
8.54632
8.72555
8.90677
9.09042
9.27689
9.4665
9.65951
9.85606
10.0561
10.2594
10.4655
10.6734
10.8828
11.0878
11.3028
11.4492
-7.62221
-7.6271
-7.63455
-7.64132
-7.64719
-7.65258
-7.65771
-7.66273
-7.66778
-7.67298
-7.67845
-7.68425
-7.69045
-7.6971
-7.70425
-7.71194
-7.7202
-7.72904
-7.73848
-7.74853
-7.7592
-7.77051
-7.78245
-7.79504
-7.80827
-7.82215
-7.83668
-7.85186
-7.86768
-7.88415
-7.90126
-7.919
-7.93737
-7.95635
-7.97594
-7.99612
-8.01688
-8.03822
-8.06011
-8.08256
-8.10553
-8.12901
-8.15296
-8.17735
-8.20215
-8.22732
-8.25281
-8.27859
-8.30458
-8.33076
-8.35704
-8.38337
-8.40966
-8.43584
-8.46181
-8.48749
-8.51276
-8.53753
-8.56167
-8.58506
-8.60757
-8.62907
-8.64942
-8.66847
-8.68606
-8.70203
-8.71622
-8.72846
-8.73857
-8.74636
-8.75165
-8.75425
-8.75396
-8.75057
-8.74388
-8.73368
-8.71976
-8.70189
-8.67987
-8.65347
-8.62248
-8.58666
-8.5458
-8.49967
-8.44807
-8.39076
-8.32753
-8.25816
-8.18246
-8.10025
-8.01133
-7.91552
-7.81261
-7.70246
-7.5849
-7.4598
-7.32704
-7.18652
-7.03814
-6.88184
-6.71757
-6.54532
-6.36507
-6.17688
-5.98078
-5.77686
-5.56524
-5.34606
-5.11947
-4.88568
-4.64491
-4.39743
-4.14351
-3.88346
-3.61765
-3.34645
-3.07029
-2.78962
-2.50495
-2.21677
-1.92562
-1.63202
-1.33655
-1.03975
-0.742179
-0.444359
-0.146841
0.149874
0.445338
0.739153
1.03092
1.32021
1.60655
1.88953
2.16878
2.444
2.71487
2.98117
3.24267
3.49923
3.75068
3.99697
4.23799
4.47375
4.70424
4.92954
5.1497
5.36487
5.5752
5.78089
5.98215
6.17926
6.37245
6.56208
6.74844
6.93191
7.11285
7.29167
7.46878
7.64462
7.81964
7.99432
8.16911
8.34449
8.52095
8.69899
8.8791
9.06173
9.24728
9.43609
9.6284
9.82432
10.0238
10.2265
10.4321
10.6392
10.8476
11.0514
11.2649
11.4096
-7.63503
-7.63908
-7.64543
-7.6513
-7.6565
-7.66137
-7.66608
-7.67076
-7.67552
-7.68048
-7.68573
-7.69134
-7.69737
-7.70386
-7.71085
-7.7184
-7.72655
-7.73529
-7.74464
-7.75461
-7.76522
-7.77648
-7.78839
-7.80097
-7.8142
-7.82809
-7.84265
-7.85788
-7.87376
-7.8903
-7.90748
-7.92532
-7.94378
-7.96288
-7.98259
-8.00291
-8.02383
-8.04533
-8.06741
-8.09005
-8.11323
-8.13692
-8.16108
-8.18569
-8.2107
-8.23606
-8.26174
-8.28768
-8.31384
-8.34016
-8.36658
-8.39303
-8.41943
-8.4457
-8.47173
-8.49745
-8.52275
-8.54751
-8.57162
-8.59496
-8.61739
-8.6388
-8.65902
-8.67792
-8.69534
-8.71113
-8.72511
-8.73713
-8.74699
-8.75453
-8.75955
-8.76187
-8.76128
-8.75759
-8.75059
-8.74008
-8.72584
-8.70766
-8.68532
-8.65861
-8.62729
-8.59116
-8.54998
-8.50354
-8.45161
-8.39398
-8.33044
-8.26077
-8.18476
-8.10223
-8.01301
-7.91687
-7.81365
-7.70316
-7.58526
-7.45981
-7.3267
-7.1858
-7.03704
-6.88034
-6.71566
-6.54297
-6.36228
-6.17362
-5.97704
-5.77263
-5.5605
-5.34077
-5.11364
-4.87928
-4.63792
-4.38983
-4.13529
-3.87461
-3.60815
-3.3363
-3.05949
-2.77818
-2.49288
-2.2041
-1.91238
-1.61827
-1.32234
-1.02513
-0.72721
-0.429121
-0.131439
0.165334
0.460753
0.754429
1.04598
1.33498
1.62095
1.90347
2.18218
2.45675
2.72688
2.99235
3.25296
3.50854
3.75896
4.00414
4.24401
4.47856
4.70779
4.93177
5.15058
5.36436
5.57327
5.77751
5.97731
6.17292
6.36463
6.55274
6.7376
6.91957
7.09902
7.27635
7.452
7.6264
7.80001
7.9733
8.14677
8.32088
8.49615
8.67308
8.85218
9.03389
9.21864
9.40675
9.59846
9.79386
9.99288
10.1952
10.4002
10.6067
10.8143
11.0169
11.2292
11.373
-7.6475
-7.65067
-7.65577
-7.66069
-7.66513
-7.66936
-7.67354
-7.67776
-7.68212
-7.6867
-7.69162
-7.69697
-7.70274
-7.70897
-7.71577
-7.72321
-7.73124
-7.73986
-7.7491
-7.759
-7.76956
-7.78079
-7.79268
-7.80526
-7.8185
-7.83243
-7.84703
-7.86231
-7.87826
-7.89488
-7.91216
-7.93009
-7.94868
-7.9679
-7.98776
-8.00824
-8.02932
-8.05099
-8.07325
-8.09606
-8.11941
-8.14325
-8.16755
-8.19228
-8.21738
-8.24282
-8.26854
-8.29452
-8.32069
-8.347
-8.37338
-8.39977
-8.42608
-8.45224
-8.47814
-8.50369
-8.52879
-8.55333
-8.5772
-8.60026
-8.6224
-8.64349
-8.66337
-8.68192
-8.69897
-8.71437
-8.72795
-8.73956
-8.74901
-8.75612
-8.76072
-8.7626
-8.76159
-8.75747
-8.75005
-8.73911
-8.72446
-8.70587
-8.68312
-8.65601
-8.6243
-8.58779
-8.54624
-8.49944
-8.44716
-8.38919
-8.32533
-8.25533
-8.17902
-8.09618
-8.00664
-7.9102
-7.80666
-7.69587
-7.57766
-7.4519
-7.31846
-7.17723
-7.02813
-6.87107
-6.70603
-6.53297
-6.35189
-6.16283
-5.96584
-5.76099
-5.54841
-5.32823
-5.10062
-4.86578
-4.62393
-4.37533
-4.12026
-3.85905
-3.59204
-3.31965
-3.0423
-2.76047
-2.47466
-2.18543
-1.89328
-1.5988
-1.30255
-1.00507
-0.706955
-0.408786
-0.111118
0.185531
0.480722
0.77406
1.06519
1.35368
1.63907
1.92092
2.19887
2.47257
2.74176
3.00619
3.26569
3.52008
3.76927
4.01315
4.25169
4.48484
4.71265
4.93515
5.15247
5.36471
5.57208
5.77476
5.97299
6.16702
6.35716
6.54371
6.72702
6.90745
7.0854
7.26126
7.43546
7.60845
7.7807
7.95269
8.1249
8.29784
8.47203
8.64797
8.82618
9.00711
9.19117
9.37871
9.56995
9.76496
9.96362
10.1656
10.3702
10.5762
10.783
10.9848
11.1959
11.3394
-7.65964
-7.66199
-7.66588
-7.66975
-7.67331
-7.67676
-7.68022
-7.68379
-7.68752
-7.69157
-7.69611
-7.70111
-7.70653
-7.7125
-7.71908
-7.72629
-7.73412
-7.7426
-7.75173
-7.76155
-7.77203
-7.78321
-7.79508
-7.80764
-7.82088
-7.83482
-7.84945
-7.86476
-7.88076
-7.89744
-7.91479
-7.9328
-7.95146
-7.97077
-7.9907
-8.01127
-8.03244
-8.0542
-8.07651
-8.09935
-8.12269
-8.1465
-8.17073
-8.19535
-8.22032
-8.24561
-8.27115
-8.29691
-8.32283
-8.34887
-8.37495
-8.40101
-8.42696
-8.45273
-8.47821
-8.50332
-8.52794
-8.55199
-8.57533
-8.59786
-8.61945
-8.63997
-8.65929
-8.67725
-8.69372
-8.70854
-8.72153
-8.73256
-8.74143
-8.74797
-8.752
-8.75334
-8.75178
-8.74714
-8.7392
-8.72777
-8.71264
-8.69358
-8.67041
-8.64286
-8.61076
-8.57384
-8.53193
-8.48477
-8.43217
-8.3739
-8.30974
-8.23948
-8.16289
-8.0798
-7.99
-7.8933
-7.78952
-7.67849
-7.56004
-7.43405
-7.30037
-7.1589
-7.00955
-6.85225
-6.68694
-6.51362
-6.33227
-6.14293
-5.94564
-5.7405
-5.52761
-5.30711
-5.07917
-4.844
-4.60181
-4.35285
-4.09743
-3.83586
-3.56849
-3.29574
-3.01804
-2.73587
-2.44977
-2.16026
-1.8679
-1.57324
-1.27686
-0.979335
-0.681269
-0.383248
-0.0858202
0.210489
0.505223
0.79799
1.08844
1.37618
1.66075
1.9417
2.21863
2.49124
2.75924
3.02242
3.28058
3.5336
3.78135
4.02375