/*--------------------------------*- C++ -*----------------------------------*\
  =========                 |
  \\      /  F ield         | OpenFOAM: The Open Source CFD Toolbox
   \\    /   O peration     | Website:  https://openfoam.org
    \\  /    A nd           | Version:  13
     \\/     M anipulation  |
\*---------------------------------------------------------------------------*/
FoamFile
{
    format      ascii;
    class       surfaceScalarField;
    location    "200";
    object      phi;
}
// * * * * * * * * * * * * * * * * * * * * * * * * * * * * * * * * * * * * * //

dimensions      [0 3 -1 0 0 0 0];

internalField   nonuniform List<scalar> 
24170
(
3.1097e-06
7.8701e-08
3.04077e-06
6.89277e-08
2.98058e-06
6.01903e-08
2.92522e-06
5.53559e-08
2.87373e-06
5.14896e-08
2.82609e-06
4.76341e-08
2.78238e-06
4.37103e-08
2.74235e-06
4.00225e-08
2.70579e-06
3.65618e-08
2.67255e-06
3.32376e-08
2.64248e-06
3.00624e-08
2.61543e-06
2.70564e-08
2.59126e-06
2.41647e-08
2.56986e-06
2.13999e-08
2.5512e-06
1.86563e-08
2.53528e-06
1.59151e-08
2.52356e-06
1.17193e-08
6.79731e-09
2.51676e-06
3.42326e-06
7.26915e-08
3.41319e-06
7.89896e-08
3.40123e-06
7.21528e-08
3.38789e-06
6.86906e-08
3.37355e-06
6.58256e-08
3.35865e-06
6.25319e-08
3.34357e-06
5.8792e-08
3.32852e-06
5.50707e-08
3.31359e-06
5.14839e-08
3.29883e-06
4.79974e-08
3.2843e-06
4.45917e-08
3.27009e-06
4.12605e-08
3.25624e-06
3.80087e-08
3.24287e-06
3.47739e-08
3.23003e-06
3.14895e-08
3.218e-06
2.79399e-08
3.20659e-06
2.31298e-08
1.79336e-08
3.19545e-06
3.67547e-06
5.97382e-08
3.67805e-06
7.64123e-08
3.67679e-06
7.34077e-08
3.67438e-06
7.10972e-08
3.67092e-06
6.92881e-08
3.66665e-06
6.67911e-08
3.66185e-06
6.35987e-08
3.65663e-06
6.02875e-08
3.65109e-06
5.70164e-08
3.64532e-06
5.37726e-08
3.63937e-06
5.0539e-08
3.63332e-06
4.73103e-08
3.62722e-06
4.41029e-08
3.62113e-06
4.08605e-08
3.61514e-06
3.74843e-08
3.60932e-06
3.37561e-08
3.60323e-06
2.9213e-08
2.40729e-08
3.59709e-06
3.93728e-06
4.78495e-08
3.94367e-06
7.00135e-08
3.94682e-06
7.02611e-08
3.94806e-06
6.98578e-08
3.9483e-06
6.90391e-08
3.94803e-06
6.70626e-08
3.94733e-06
6.42928e-08
3.94628e-06
6.13417e-08
3.94491e-06
5.83765e-08
3.94332e-06
5.53631e-08
3.94156e-06
5.22981e-08
3.93969e-06
4.9179e-08
3.93778e-06
4.60156e-08
3.93584e-06
4.27992e-08
3.93389e-06
3.94245e-08
3.93192e-06
3.57254e-08
3.92965e-06
3.14882e-08
2.67295e-08
3.92699e-06
4.21727e-06
3.77098e-08
4.22463e-06
6.26496e-08
4.22929e-06
6.56014e-08
4.23244e-06
6.67075e-08
4.23468e-06
6.6796e-08
4.23638e-06
6.53579e-08
4.23762e-06
6.3048e-08
4.23846e-06
6.05077e-08
4.23904e-06
5.77887e-08
4.23946e-06
5.49462e-08
4.23974e-06
5.2016e-08
4.23993e-06
4.89892e-08
4.24004e-06
4.59048e-08
4.24007e-06
4.27626e-08
4.24004e-06
3.94545e-08
4.23989e-06
3.58747e-08
4.23944e-06
3.19428e-08
2.77044e-08
4.23846e-06
4.51716e-06
2.96412e-08
4.52475e-06
5.50501e-08
4.53002e-06
6.03293e-08
4.5342e-06
6.25295e-08
4.5376e-06
6.33887e-08
4.54041e-06
6.25538e-08
4.54275e-06
6.06982e-08
4.54478e-06
5.84814e-08
4.54655e-06
5.60204e-08
4.54811e-06
5.33804e-08
4.54957e-06
5.05505e-08
4.5509e-06
4.76612e-08
4.55205e-06
4.47568e-08
4.55311e-06
4.16988e-08
4.55408e-06
3.84797e-08
4.55489e-06
3.50674e-08
4.5554e-06
3.14321e-08
2.76518e-08
4.55545e-06
4.83897e-06
2.33869e-08
4.84619e-06
4.78369e-08
4.8517e-06
5.48152e-08
4.85642e-06
5.78102e-08
4.86053e-06
5.92774e-08
4.86408e-06
5.90024e-08
4.86718e-06
5.75922e-08
4.86997e-06
5.56895e-08
4.87251e-06
5.34821e-08
4.87484e-06
5.10438e-08
4.87699e-06
4.84025e-08
4.879e-06
4.56526e-08
4.8809e-06
4.28563e-08
4.88267e-06
3.99303e-08
4.88428e-06
3.68621e-08
4.88571e-06
3.36429e-08
4.88685e-06
3.02917e-08
2.69883e-08
4.88751e-06
5.18439e-06
1.85764e-08
5.19099e-06
4.12339e-08
5.19647e-06
4.93349e-08
5.20139e-06
5.28919e-08
5.20588e-06
5.47785e-08
5.20992e-06
5.49676e-08
5.21355e-06
5.39602e-08
5.21688e-06
5.23579e-08
5.21996e-06
5.03966e-08
5.22284e-06
4.81656e-08
5.22552e-06
4.57199e-08
5.22803e-06
4.31349e-08
5.23042e-06
4.04687e-08
5.23266e-06
3.76924e-08
5.23472e-06
3.4801e-08
5.23655e-06
3.18112e-08
5.23807e-06
2.87725e-08
2.58122e-08
5.23924e-06
5.55503e-06
1.48821e-08
5.56096e-06
3.53078e-08
5.56627e-06
4.40182e-08
5.57119e-06
4.797e-08
5.57585e-06
5.01144e-08
5.58017e-06
5.06542e-08
5.58414e-06
4.99872e-08
5.58784e-06
4.86551e-08
5.59131e-06
4.69225e-08
5.59458e-06
4.4895e-08
5.59766e-06
4.2642e-08
5.60056e-06
4.0233e-08
5.60331e-06
3.77225e-08
5.60588e-06
3.51149e-08
5.60826e-06
3.242e-08
5.6104e-06
2.96683e-08
5.61226e-06
2.69176e-08
2.42633e-08
5.61381e-06
5.95263e-06
1.20309e-08
5.95788e-06
3.00524e-08
5.96298e-06
3.8919e-08
5.96782e-06
4.31257e-08
5.97252e-06
4.54113e-08
5.97698e-06
4.61979e-08
5.98115e-06
4.58078e-08
5.9851e-06
4.471e-08
5.98883e-06
4.31826e-08
5.99238e-06
4.13467e-08
5.99574e-06
3.92796e-08
5.99892e-06
3.70496e-08
6.00193e-06
3.47103e-08
6.00476e-06
3.22856e-08
6.00738e-06
2.97977e-08
6.00977e-06
2.72836e-08
6.01189e-06
2.47978e-08
2.24158e-08
6.01373e-06
6.37904e-06
9.80555e-09
6.38366e-06
2.54313e-08
6.38851e-06
3.40616e-08
6.39325e-06
3.83831e-08
6.39793e-06
4.07282e-08
6.40246e-06
4.16748e-08
6.40676e-06
4.15034e-08
6.41086e-06
4.06082e-08
6.41478e-06
3.92648e-08
6.41851e-06
3.76077e-08
6.42207e-06
3.57191e-08
6.42545e-06
3.36674e-08
6.42866e-06
3.15069e-08
6.43167e-06
2.92726e-08
6.43447e-06
2.69949e-08
6.43704e-06
2.47124e-08
6.43936e-06
2.24715e-08
2.03355e-08
6.44144e-06
5.74237e-06
8.2696e-09
5.74581e-06
2.19878e-08
5.74972e-06
3.01462e-08
5.75366e-06
3.44492e-08
5.75758e-06
3.68026e-08
5.76142e-06
3.78286e-08
5.76513e-06
3.77986e-08
5.76868e-06
3.70532e-08
5.77209e-06
3.5854e-08
5.77536e-06
3.43409e-08
5.77847e-06
3.25995e-08
5.78144e-06
3.06985e-08
5.78425e-06
2.8693e-08
5.7869e-06
2.66225e-08
5.78938e-06
2.45221e-08
5.79166e-06
2.2429e-08
5.79375e-06
2.03833e-08
1.84398e-08
5.79564e-06
6.99962e-06
6.80847e-09
7.00313e-06
1.84672e-08
7.00736e-06
2.59155e-08
7.01175e-06
3.0058e-08
7.01621e-06
3.23479e-08
7.02063e-06
3.34072e-08
7.02493e-06
3.34969e-08
7.02908e-06
3.28995e-08
7.03308e-06
3.1853e-08
7.03692e-06
3.04986e-08
7.04059e-06
2.89243e-08
7.04409e-06
2.71971e-08
7.04741e-06
2.53723e-08
7.05054e-06
2.34924e-08
7.05347e-06
2.15934e-08
7.05619e-06
1.97111e-08
7.05869e-06
1.78771e-08
1.61414e-08
7.06099e-06
8.53223e-06
5.42409e-09
8.53576e-06
1.49364e-08
8.54026e-06
2.14161e-08
8.5451e-06
2.52183e-08
8.55009e-06
2.73494e-08
8.55512e-06
2.83761e-08
8.56007e-06
2.85464e-08
8.56488e-06
2.80856e-08
8.56954e-06
2.71969e-08
8.57402e-06
2.60164e-08
8.57831e-06
2.46295e-08
8.58241e-06
2.31023e-08
8.58629e-06
2.14867e-08
8.58996e-06
1.98258e-08
8.59339e-06
1.81543e-08
8.5966e-06
1.65048e-08
8.59957e-06
1.49026e-08
1.33892e-08
8.60233e-06
1.04005e-05
4.10585e-09
1.0404e-05
1.14385e-08
1.04088e-05
1.66958e-08
1.0414e-05
1.99425e-08
1.04196e-05
2.1794e-08
1.04252e-05
2.27042e-08
1.04309e-05
2.28977e-08
1.04364e-05
2.25475e-08
1.04418e-05
2.18151e-08
1.0447e-05
2.08194e-08
1.0452e-05
1.96416e-08
1.04568e-05
1.83399e-08
1.04613e-05
1.69637e-08
1.04656e-05
1.5551e-08
1.04696e-05
1.4135e-08
1.04733e-05
1.2742e-08
1.04768e-05
1.13933e-08
1.01226e-08
1.04801e-05
1.26781e-05
2.83211e-09
1.26815e-05
7.96334e-09
1.26865e-05
1.17787e-08
1.26922e-05
1.42354e-08
1.26983e-05
1.5657e-08
1.27046e-05
1.63513e-08
1.2711e-05
1.64954e-08
1.27174e-05
1.62157e-08
1.27236e-05
1.56271e-08
1.27296e-05
1.48234e-08
1.27353e-05
1.38711e-08
1.27408e-05
1.28207e-08
1.27461e-05
1.17117e-08
1.27511e-05
1.05778e-08
1.27558e-05
9.44466e-09
1.27602e-05
8.33548e-09
1.27643e-05
7.26401e-09
6.2605e-09
1.27682e-05
1.54544e-05
1.56387e-09
1.5458e-05
4.43375e-09
1.54631e-05
6.61154e-09
1.54693e-05
8.04658e-09
1.54761e-05
8.86978e-09
1.54832e-05
9.23672e-09
1.54905e-05
9.25288e-09
1.54977e-05
8.99457e-09
1.55048e-05
8.53047e-09
1.55117e-05
7.91985e-09
1.55183e-05
7.20843e-09
1.55247e-05
6.43166e-09
1.55308e-05
5.61814e-09
1.55366e-05
4.79175e-09
1.55421e-05
3.9717e-09
1.55472e-05
3.174e-09
1.55521e-05
2.40844e-09
1.69818e-09
1.55567e-05
1.8839e-05
2.31178e-10
1.88427e-05
6.59069e-10
1.88484e-05
9.79008e-10
1.88552e-05
1.17275e-09
1.88629e-05
1.23439e-09
1.88709e-05
1.16772e-09
1.88792e-05
9.86339e-10
1.88875e-05
7.08884e-10
1.88957e-05
3.55156e-10
1.89036e-05
-5.617e-11
1.89114e-05
-5.07781e-10
1.89188e-05
-9.84052e-10
1.89259e-05
-1.47099e-09
1.89326e-05
-1.95632e-09
1.8939e-05
-2.42967e-09
1.89451e-05
-2.88205e-09
1.89508e-05
-3.30856e-09
-3.69227e-09
1.89562e-05
2.29649e-05
-1.32701e-09
2.29694e-05
-3.80267e-09
2.2976e-05
-5.67479e-09
2.29841e-05
-6.92947e-09
2.29931e-05
-7.74888e-09
2.30026e-05
-8.31432e-09
2.30123e-05
-8.72095e-09
2.3022e-05
-9.01497e-09
2.30316e-05
-9.23568e-09
2.30409e-05
-9.41133e-09
2.305e-05
-9.55992e-09
2.30587e-05
-9.68806e-09
2.3067e-05
-9.80018e-09
2.30749e-05
-9.89628e-09
2.30825e-05
-9.97683e-09
2.30896e-05
-1.00393e-08
2.30964e-05
-1.00845e-08
-1.01014e-08
2.31028e-05
1.6812e-05
-2.66137e-09
1.68158e-05
-7.52751e-09
1.68211e-05
-1.10456e-08
1.68274e-05
-1.32526e-08
1.68343e-05
-1.45989e-08
1.68414e-05
-1.54424e-08
1.68486e-05
-1.5938e-08
1.68558e-05
-1.61806e-08
1.68628e-05
-1.62535e-08
1.68696e-05
-1.62236e-08
1.68762e-05
-1.61262e-08
1.68825e-05
-1.59862e-08
1.68885e-05
-1.58156e-08
1.68942e-05
-1.56263e-08
1.68997e-05
-1.54207e-08
1.69048e-05
-1.52035e-08
1.69097e-05
-1.49747e-08
-1.47304e-08
1.69143e-05
1.4636e-05
-4.14107e-09
1.46401e-05
-1.1544e-08
1.46455e-05
-1.65174e-08
1.46517e-05
-1.93761e-08
1.46581e-05
-2.10368e-08
1.46647e-05
-2.20155e-08
1.46712e-05
-2.24919e-08
1.46776e-05
-2.2604e-08
1.46839e-05
-2.24884e-08
1.46899e-05
-2.22334e-08
1.46956e-05
-2.18906e-08
1.47011e-05
-2.14915e-08
1.47064e-05
-2.10607e-08
1.47114e-05
-2.0612e-08
1.47161e-05
-2.01536e-08
1.47206e-05
-1.96886e-08
1.47248e-05
-1.92219e-08
-1.87487e-08
1.47288e-05
1.27419e-05
-5.95852e-09
1.27466e-05
-1.61756e-08
1.27523e-05
-2.22881e-08
1.27584e-05
-2.5437e-08
1.27646e-05
-2.72128e-08
1.27707e-05
-2.8188e-08
1.27768e-05
-2.85268e-08
1.27826e-05
-2.84346e-08
1.27882e-05
-2.80904e-08
1.27936e-05
-2.75931e-08
1.27987e-05
-2.69982e-08
1.28035e-05
-2.63457e-08
1.28081e-05
-2.56675e-08
1.28125e-05
-2.49798e-08
1.28166e-05
-2.42907e-08
1.28205e-05
-2.36023e-08
1.28242e-05
-2.29217e-08
-2.22458e-08
1.28277e-05
1.10934e-05
-8.39097e-09
1.10989e-05
-2.17056e-08
1.1105e-05
-2.84061e-08
1.1111e-05
-3.14702e-08
1.1117e-05
-3.31972e-08
1.11228e-05
-3.40197e-08
1.11284e-05
-3.41034e-08
1.11337e-05
-3.37423e-08
1.11388e-05
-3.31351e-08
1.11435e-05
-3.23737e-08
1.11481e-05
-3.15139e-08
1.11523e-05
-3.06051e-08
1.11563e-05
-2.9686e-08
1.11601e-05
-2.87736e-08
1.11637e-05
-2.78661e-08
1.11671e-05
-2.69684e-08
1.11702e-05
-2.60876e-08
-2.52236e-08
1.11732e-05
9.65869e-06
-1.18627e-08
9.6653e-06
-2.83222e-08
9.67169e-06
-3.47949e-08
9.67768e-06
-3.74636e-08
9.68346e-06
-3.89837e-08
9.68891e-06
-3.94658e-08
9.69398e-06
-3.91751e-08
9.69872e-06
-3.84876e-08
9.70316e-06
-3.75753e-08
9.7073e-06
-3.65186e-08
9.71116e-06
-3.53704e-08
9.71474e-06
-3.41906e-08
9.71809e-06
-3.3035e-08
9.72122e-06
-3.19081e-08
9.72415e-06
-3.07956e-08
9.72688e-06
-2.9698e-08
9.72942e-06
-2.86358e-08
-2.75842e-08
9.73178e-06
8.41047e-06
-1.69844e-08
8.41816e-06
-3.60051e-08
8.42463e-06
-4.12746e-08
8.43047e-06
-4.33018e-08
8.43586e-06
-4.43786e-08
8.44068e-06
-4.42814e-08
8.445e-06
-4.34973e-08
8.44894e-06
-4.24287e-08
8.45252e-06
-4.11635e-08
8.45579e-06
-3.97862e-08
8.45875e-06
-3.83353e-08
8.46145e-06
-3.68859e-08
8.46392e-06
-3.55041e-08
8.46617e-06
-3.41685e-08
8.46824e-06
-3.28588e-08
8.47012e-06
-3.15782e-08
8.47183e-06
-3.03522e-08
-2.91917e-08
8.47344e-06
7.3248e-06
-2.45029e-08
7.33315e-06
-4.43573e-08
7.33935e-06
-4.74772e-08
7.34458e-06
-4.8532e-08
7.349e-06
-4.8799e-08
7.35266e-06
-4.79362e-08
7.35573e-06
-4.65753e-08
7.35839e-06
-4.5085e-08
7.36066e-06
-4.34353e-08
7.36264e-06
-4.17708e-08
7.36442e-06
-4.0114e-08
7.36595e-06
-3.84227e-08
7.3672e-06
-3.67525e-08
7.36821e-06
-3.51759e-08
7.36905e-06
-3.37016e-08
7.36976e-06
-3.22948e-08
7.37035e-06
-3.09404e-08
-2.96508e-08
7.37081e-06
6.38058e-06
-3.50201e-08
6.38852e-06
-5.2294e-08
6.39354e-06
-5.24992e-08
6.39707e-06
-5.20635e-08
6.3995e-06
-5.12311e-08
6.40125e-06
-4.96908e-08
6.40227e-06
-4.75921e-08
6.4028e-06
-4.56193e-08
6.40305e-06
-4.3687e-08
6.40305e-06
-4.17696e-08
6.40283e-06
-3.98937e-08
6.40245e-06
-3.80405e-08
6.40193e-06
-3.624e-08
6.40128e-06
-3.45215e-08
6.40048e-06
-3.29026e-08
6.39955e-06
-3.13645e-08
6.3985e-06
-2.98973e-08
-2.84901e-08
6.39734e-06
5.55804e-06
-4.75919e-08
5.5635e-06
-5.7762e-08
5.56513e-06
-5.41296e-08
5.56463e-06
-5.1565e-08
5.56325e-06
-4.98478e-08
5.56124e-06
-4.76821e-08
5.55875e-06
-4.51043e-08
5.55584e-06
-4.27145e-08
5.55262e-06
-4.04661e-08
5.54916e-06
-3.83157e-08
5.54553e-06
-3.62663e-08
5.5418e-06
-3.43018e-08
5.53799e-06
-3.24338e-08
5.53413e-06
-3.06673e-08
5.53024e-06
-2.90089e-08
5.52631e-06
-2.74327e-08
5.52236e-06
-2.59502e-08
-2.44849e-08
5.51835e-06
4.83671e-06
-5.669e-08
4.83075e-06
-5.18101e-08
4.82247e-06
-4.58521e-08
4.81314e-06
-4.2231e-08
4.80276e-06
-3.94757e-08
4.7919e-06
-3.68222e-08
4.78095e-06
-3.41512e-08
4.76997e-06
-3.17362e-08
4.75905e-06
-2.95521e-08
4.74827e-06
-2.75364e-08
4.73767e-06
-2.56673e-08
4.72731e-06
-2.39407e-08
4.71721e-06
-2.23348e-08
4.70738e-06
-2.08429e-08
4.69783e-06
-1.94541e-08
4.68854e-06
-1.81509e-08
4.67951e-06
-1.69213e-08
-1.54802e-08
4.67051e-06
4.14599e-06
4.09418e-06
4.04832e-06
4.00609e-06
3.96662e-06
3.92979e-06
3.89564e-06
3.86391e-06
3.83435e-06
3.80682e-06
3.78115e-06
3.75721e-06
3.73487e-06
3.71403e-06
3.69458e-06
3.67643e-06
3.6595e-06
3.64402e-06
1.42478e-08
-1.42979e-08
2.45826e-08
-1.04233e-08
2.65644e-08
-2.03341e-09
2.02669e-08
6.22857e-09
7.89877e-09
1.23332e-08
-8.95476e-09
1.6793e-08
-2.87272e-08
1.97524e-08
-5.10265e-08
2.22473e-08
-7.6167e-08
2.51281e-08
-1.04622e-07
2.8408e-08
-1.35885e-07
3.12553e-08
-1.68735e-07
3.28058e-08
-2.02213e-07
3.34739e-08
-2.35957e-07
3.37025e-08
-2.69705e-07
3.37473e-08
-3.03485e-07
3.374e-08
-3.37237e-07
3.37554e-08
-3.71104e-07
3.38291e-08
-4.05083e-07
3.39823e-08
-4.39336e-07
3.42144e-08
-4.73847e-07
3.45147e-08
-5.08733e-07
3.48459e-08
-5.43906e-07
3.51731e-08
-5.79398e-07
3.54523e-08
-6.15065e-07
3.56623e-08
-6.50946e-07
3.58419e-08
-6.87067e-07
3.61162e-08
-7.23594e-07
3.64873e-08
-7.60459e-07
3.6858e-08
-7.97541e-07
3.70422e-08
-8.34672e-07
3.71259e-08
-8.72083e-07
3.73674e-08
-9.10102e-07
3.80135e-08
-9.48256e-07
3.81029e-08
-9.86176e-07
3.79238e-08
-1.02444e-06
3.82167e-08
-1.06251e-06
3.80799e-08
-1.10038e-06
3.78304e-08
-1.13811e-06
3.77429e-08
-1.17578e-06
3.76261e-08
-1.21328e-06
3.75066e-08
-1.25072e-06
3.74024e-08
-1.28803e-06
3.73199e-08
-1.32531e-06
3.72472e-08
-1.36248e-06
3.71876e-08
-1.39964e-06
3.71297e-08
-1.43671e-06
3.70783e-08
-1.47376e-06
3.70219e-08
-1.51071e-06
3.69658e-08
-1.54765e-06
3.68985e-08
-1.58447e-06
3.68268e-08
-1.62125e-06
3.67388e-08
-1.65789e-06
3.66412e-08
-1.69446e-06
3.65233e-08
-1.73084e-06
3.63918e-08
-1.76712e-06
3.62342e-08
-1.80318e-06
3.60583e-08
-1.83908e-06
3.58536e-08
-1.8747e-06
3.56277e-08
-1.91011e-06
3.53667e-08
-1.94518e-06
3.50751e-08
-1.97995e-06
3.47379e-08
-2.01431e-06
3.43641e-08
-2.04829e-06
3.39574e-08
-2.08184e-06
3.35628e-08
-2.11506e-06
3.31883e-08
-2.14783e-06
3.27831e-08
-2.18008e-06
3.22235e-08
-2.21161e-06
3.15538e-08
-2.24252e-06
3.08816e-08
-2.27273e-06
3.02237e-08
-2.30228e-06
2.95288e-08
-2.33105e-06
2.87913e-08
-2.35907e-06
2.80007e-08
-2.38623e-06
2.71706e-08
-2.41255e-06
2.62892e-08
-2.43791e-06
2.53686e-08
-2.46234e-06
2.43985e-08
-2.48572e-06
2.33901e-08
-2.50807e-06
2.23309e-08
-2.52929e-06
2.12328e-08
-2.54939e-06
2.00849e-08
-2.56826e-06
1.88988e-08
-2.58593e-06
1.76622e-08
-2.6023e-06
1.63876e-08
-2.61737e-06
1.5065e-08
-2.63104e-06
1.37059e-08
-2.64332e-06
1.22997e-08
-2.65412e-06
1.08535e-08
-2.6634e-06
9.36639e-09
-2.67118e-06
7.83537e-09
-2.6774e-06
6.26091e-09
-2.68202e-06
4.64291e-09
-2.68499e-06
2.99256e-09
-2.68632e-06
1.34901e-09
-2.68587e-06
-4.42474e-10
-2.68367e-06
-2.18683e-09
-2.6797e-06
-3.95886e-09
-2.67397e-06
-5.71557e-09
-2.66643e-06
-7.53817e-09
-2.65704e-06
-9.37723e-09
-2.64581e-06
-1.12325e-08
-2.63271e-06
-1.3104e-08
-2.61773e-06
-1.49885e-08
-2.60085e-06
-1.68794e-08
-2.58207e-06
-1.87754e-08
-2.56139e-06
-2.06702e-08
-2.53881e-06
-2.25617e-08
-2.51434e-06
-2.44443e-08
-2.48799e-06
-2.63146e-08
-2.45979e-06
-2.81681e-08
-2.42974e-06
-2.99993e-08
-2.39789e-06
-3.18046e-08
-2.36427e-06
-3.35766e-08
-2.3289e-06
-3.53131e-08
-2.29184e-06
-3.70049e-08
-2.25313e-06
-3.86513e-08
-2.21284e-06
-4.02414e-08
-2.17102e-06
-4.17753e-08
-2.12773e-06
-4.32402e-08
-2.08303e-06
-4.46361e-08
-2.037e-06
-4.59511e-08
-1.98972e-06
-4.7193e-08
-1.94128e-06
-4.83526e-08
-1.89176e-06
-4.94485e-08
-1.84124e-06
-5.0456e-08
-1.78984e-06
-5.13749e-08
-1.73762e-06
-5.21927e-08
-1.6847e-06
-5.29337e-08
-1.63115e-06
-5.35741e-08
-1.57709e-06
-5.41249e-08
-1.5226e-06
-5.45692e-08
-1.4678e-06
-5.49191e-08
-1.41277e-06
-5.51608e-08
-1.35763e-06
-5.53049e-08
-1.30246e-06
-5.53436e-08
-1.24737e-06
-5.52822e-08
-1.19244e-06
-5.51185e-08
-1.13775e-06
-5.48519e-08
-1.0834e-06
-5.44918e-08
-1.02947e-06
-5.40411e-08
-9.76038e-07
-5.35162e-08
-9.23185e-07
-5.29154e-08
-8.70977e-07
-5.22534e-08
-8.19473e-07
-5.1523e-08
-7.68731e-07
-5.0744e-08
-7.18793e-07
-4.99095e-08
-6.69702e-07
-4.90427e-08
-6.21482e-07
-4.81347e-08
-5.74161e-07
-4.72117e-08
-5.27742e-07
-4.62656e-08
-4.82236e-07
-4.5326e-08
-4.37627e-07
-4.43812e-08
-3.93906e-07
-4.34648e-08
-3.51037e-07
-4.25669e-08
-3.0899e-07
-4.1718e-08
-2.67705e-07
-4.09134e-08
-2.27112e-07
-4.01981e-08
-1.87091e-07
-3.95877e-08
-1.47436e-07
-3.92013e-08
-1.0825e-07
-3.86996e-08
-6.98292e-08
-3.79177e-08
-3.18552e-08
-3.74459e-08
5.84564e-09
-3.71607e-08
4.36593e-08
-3.72602e-08
8.05354e-08
-3.63239e-08
1.16611e-07
-3.55289e-08
1.53068e-07
-3.59146e-08
1.90229e-07
-3.66316e-08
2.28277e-07
-3.75214e-08
2.67484e-07
-3.87009e-08
3.08122e-07
-4.01347e-08
3.5065e-07
-4.20529e-08
3.9521e-07
-4.40901e-08
4.41494e-07
-4.58521e-08
4.89131e-07
-4.72161e-08
5.3704e-07
-4.75379e-08
5.82844e-07
-4.54586e-08
6.21065e-07
-3.79371e-08
4.13411e-09
6.17183e-07
3.67629e-09
-1.80206e-08
-2.05029e-09
-4.75719e-09
-1.27047e-08
8.58974e-09
-2.65049e-08
1.99956e-08
-4.3567e-08
2.93756e-08
-6.37067e-08
3.69047e-08
-8.68643e-08
4.28951e-08
-1.12414e-07
4.77713e-08
-1.3933e-07
5.20314e-08
-1.6674e-07
5.57926e-08
-1.94435e-07
5.89405e-08
-2.22938e-07
6.12839e-08
-2.52391e-07
6.2918e-08
-2.82763e-07
6.40514e-08
-3.13897e-07
6.4874e-08
-3.45706e-07
6.55273e-08
-3.78067e-07
6.61118e-08
-4.10953e-07
6.66941e-08
-4.44288e-07
6.73145e-08
-4.78084e-07
6.79884e-08
-5.12286e-07
6.87125e-08
-5.46925e-07
6.94641e-08
-5.81975e-07
7.02178e-08
-6.17508e-07
7.09613e-08
-6.53545e-07
7.16931e-08
-6.90144e-07
7.24183e-08
-7.27186e-07
7.31507e-08
-7.64519e-07
7.37959e-08
-8.01754e-07
7.4084e-08
-8.38838e-07
7.41006e-08
-8.75908e-07
7.41853e-08
-9.12925e-07
7.43576e-08
-9.49541e-07
7.4619e-08
-9.86418e-07
7.49539e-08
-1.02332e-06
7.48145e-08
-1.0598e-06
7.46812e-08
-1.09606e-06
7.43341e-08
-1.13209e-06
7.3842e-08
-1.16783e-06
7.34799e-08
-1.20343e-06
7.32099e-08
-1.23891e-06
7.29786e-08
-1.27431e-06
7.27835e-08
-1.30961e-06
7.26195e-08
-1.34485e-06
7.2477e-08
-1.38002e-06
7.23501e-08
-1.41513e-06
7.22298e-08
-1.45016e-06
7.21118e-08
-1.48514e-06
7.19883e-08
-1.52003e-06
7.1856e-08
-1.55485e-06
7.17073e-08
-1.58957e-06
7.15394e-08
-1.62419e-06
7.13459e-08
-1.65868e-06
7.11245e-08
-1.69304e-06
7.08686e-08
-1.72723e-06
7.05758e-08
-1.76126e-06
7.02396e-08
-1.79507e-06
6.98587e-08
-1.82866e-06
6.94274e-08
-1.86198e-06
6.89449e-08
-1.89504e-06
6.84049e-08
-1.92778e-06
6.78047e-08
-1.96019e-06
6.71339e-08
-1.99221e-06
6.63857e-08
-2.02381e-06
6.55459e-08
-2.05487e-06
6.46139e-08
-2.08542e-06
6.37278e-08
-2.11557e-06
6.2931e-08
-2.14527e-06
6.19235e-08
-2.17436e-06
6.06399e-08
-2.20277e-06
5.92858e-08
-2.23047e-06
5.79259e-08
-2.25746e-06
5.65109e-08
-2.28368e-06
5.50126e-08
-2.30911e-06
5.34246e-08
-2.33369e-06
5.17505e-08
-2.35739e-06
4.99867e-08
-2.38016e-06
4.81373e-08
-2.40197e-06
4.61987e-08
-2.42276e-06
4.41745e-08
-2.44249e-06
4.20604e-08
-2.46112e-06
3.98609e-08
-2.4786e-06
3.7572e-08
-2.49489e-06
3.51978e-08
-2.50996e-06
3.27348e-08
-2.52376e-06
3.01879e-08
-2.53624e-06
2.75545e-08
-2.54736e-06
2.48396e-08
-2.55709e-06
2.20405e-08
-2.56536e-06
1.91614e-08
-2.57215e-06
1.62014e-08
-2.57743e-06
1.31612e-08
-2.58119e-06
1.00425e-08
-2.58339e-06
6.84767e-09
-2.58397e-06
3.58475e-09
-2.58287e-06
2.55802e-10
-2.58013e-06
-3.16935e-09
-2.57569e-06
-6.62633e-09
-2.56951e-06
-1.01337e-08
-2.56154e-06
-1.36854e-08
-2.55178e-06
-1.72898e-08
-2.54023e-06
-2.09359e-08
-2.52684e-06
-2.46175e-08
-2.51163e-06
-2.8328e-08
-2.49456e-06
-3.20601e-08
-2.47563e-06
-3.58056e-08
-2.45485e-06
-3.95574e-08
-2.43221e-06
-4.33066e-08
-2.40771e-06
-4.70461e-08
-2.38137e-06
-5.07666e-08
-2.35321e-06
-5.44604e-08
-2.32323e-06
-5.81174e-08
-2.29147e-06
-6.17287e-08
-2.25797e-06
-6.52838e-08
-2.22274e-06
-6.87727e-08
-2.18583e-06
-7.21842e-08
-2.1473e-06
-7.55077e-08
-2.10718e-06
-7.87322e-08
-2.06554e-06
-8.18474e-08
-2.02245e-06
-8.48417e-08
-1.97796e-06
-8.77018e-08
-1.93214e-06
-9.0417e-08
-1.88506e-06
-9.29759e-08
-1.83682e-06
-9.53765e-08
-1.78751e-06
-9.76154e-08
-1.7372e-06
-9.9704e-08
-1.686e-06
-1.01627e-07
-1.63398e-06
-1.03366e-07
-1.58125e-06
-1.04912e-07
-1.5279e-06
-1.06286e-07
-1.47402e-06
-1.07472e-07
-1.41971e-06
-1.08469e-07
-1.36506e-06
-1.09265e-07
-1.31018e-06
-1.09864e-07
-1.25515e-06
-1.10257e-07
-1.20009e-06
-1.10452e-07
-1.14509e-06
-1.10444e-07
-1.09023e-06
-1.1024e-07
-1.0356e-06
-1.09838e-07
-9.81294e-07
-1.09247e-07
-9.2738e-07
-1.08471e-07
-8.73946e-07
-1.07529e-07
-8.21065e-07
-1.06433e-07
-7.68811e-07
-1.05202e-07
-7.17239e-07
-1.0384e-07
-6.66407e-07
-1.02366e-07
-6.16358e-07
-1.00786e-07
-5.67132e-07
-9.91233e-08
-5.18756e-07
-9.73844e-08
-4.71253e-07
-9.5597e-08
-4.24631e-07
-9.3766e-08
-3.78896e-07
-9.19262e-08
-3.34035e-07
-9.00821e-08
-2.90034e-07
-8.82692e-08
-2.46861e-07
-8.64937e-08
-2.04477e-07
-8.4799e-08
-1.62825e-07
-8.31869e-08
-1.21841e-07
-8.17104e-08
-8.14314e-08
-8.03897e-08
-4.15133e-08
-7.92861e-08
-2.07595e-09
-7.83903e-08
3.69473e-08
-7.74761e-08
7.58015e-08
-7.65007e-08
1.1455e-07
-7.59299e-08
1.53454e-07
-7.5779e-08
1.92576e-07
-7.61046e-08
2.32768e-07
-7.62219e-08
2.73916e-07
-7.63918e-08
3.15882e-07
-7.75814e-08
3.59053e-07
-7.9514e-08
4.03757e-07
-8.19269e-08
4.5017e-07
-8.48272e-08
4.98484e-07
-8.81549e-08
5.48707e-07
-9.19966e-08
6.00917e-07
-9.6018e-08
6.55011e-07
-9.96805e-08
7.10489e-07
-1.02435e-07
7.66327e-07
-1.0314e-07
8.20805e-07
-9.97179e-08
8.68975e-07
-8.59205e-08
-4.07626e-08
9.14034e-07
-9.97084e-09
-8.08322e-09
-2.52871e-08
1.05213e-08
-4.22505e-08
2.55349e-08
-6.03607e-08
3.80858e-08
-7.97703e-08
4.87731e-08
-1.00706e-07
5.78229e-08
-1.23242e-07
6.54206e-08
-1.47267e-07
7.17782e-08
-1.72367e-07
7.71226e-08
-1.98201e-07
8.16086e-08
-2.24596e-07
8.53267e-08
-2.51671e-07
8.83412e-08
-2.79513e-07
9.0752e-08
-3.0817e-07
9.2692e-08
-3.37597e-07
9.42947e-08
-3.67761e-07
9.56745e-08
-3.98574e-07
9.69208e-08
-4.29994e-07
9.80984e-08
-4.61933e-07
9.92501e-08
-4.94356e-07
1.00397e-07
-5.27189e-07
1.01543e-07
-5.60416e-07
1.02676e-07
-5.9398e-07
1.03779e-07
-6.27864e-07
1.04831e-07
-6.61985e-07
1.0581e-07
-6.96269e-07
1.06689e-07
-7.30542e-07
1.07418e-07
-7.64668e-07
1.07908e-07
-7.98639e-07
1.08049e-07
-8.32555e-07
1.08001e-07
-8.66359e-07
1.07981e-07
-8.99967e-07
1.0795e-07
-9.33325e-07
1.07968e-07
-9.66367e-07
1.0798e-07
-9.99371e-07
1.07811e-07
-1.0322e-06
1.07501e-07
-1.06495e-06
1.07069e-07
-1.09774e-06
1.06627e-07
-1.13052e-06
1.06249e-07
-1.16325e-06
1.05933e-07
-1.19594e-06
1.05664e-07
-1.22861e-06
1.05434e-07
-1.26123e-06
1.05235e-07
-1.29382e-06
1.05058e-07
-1.32636e-06
1.04894e-07
-1.35887e-06
1.04735e-07
-1.39134e-06
1.04573e-07
-1.42375e-06
1.04401e-07
-1.45611e-06
1.0421e-07
-1.4884e-06
1.03994e-07
-1.52061e-06
1.03746e-07
-1.55273e-06
1.03459e-07
-1.58474e-06
1.03128e-07
-1.61662e-06
1.02745e-07
-1.64836e-06
1.02305e-07
-1.67993e-06
1.01802e-07
-1.7113e-06
1.0123e-07
-1.74247e-06
1.00584e-07
-1.77339e-06
9.98594e-08
-1.80405e-06
9.90507e-08
-1.8344e-06
9.81519e-08
-1.86443e-06
9.7155e-08
-1.89411e-06
9.60537e-08
-1.92342e-06
9.48472e-08
-1.95236e-06
9.35538e-08
-1.98086e-06
9.22189e-08
-2.00874e-06
9.08019e-08
-2.03601e-06
8.91897e-08
-2.06277e-06
8.73936e-08
-2.08897e-06
8.54871e-08
-2.11453e-06
8.34886e-08
-2.1394e-06
8.13803e-08
-2.16354e-06
7.91505e-08
-2.18691e-06
7.67941e-08
-2.20947e-06
7.43101e-08
-2.23118e-06
7.16969e-08
-2.252e-06
6.89551e-08
-2.27189e-06
6.60835e-08
-2.2908e-06
6.30826e-08
-2.30869e-06
5.99514e-08
-2.32552e-06
5.66909e-08
-2.34124e-06
5.33005e-08
-2.35582e-06
4.97814e-08
-2.36922e-06
4.61334e-08
-2.38139e-06
4.23588e-08
-2.39229e-06
3.8458e-08
-2.40187e-06
3.44337e-08
-2.41011e-06
3.02869e-08
-2.41695e-06
2.60198e-08
-2.42235e-06
2.16347e-08
-2.4263e-06
1.71321e-08
-2.42876e-06
1.25146e-08
-2.42969e-06
7.78685e-09
-2.42906e-06
2.95355e-09
-2.42682e-06
-1.98116e-09
-2.42297e-06
-7.01846e-09
-2.41746e-06
-1.21343e-08
-2.41027e-06
-1.7329e-08
-2.40136e-06
-2.25963e-08
-2.39072e-06
-2.79321e-08
-2.37833e-06
-3.33278e-08
-2.36418e-06
-3.8774e-08
-2.34825e-06
-4.42616e-08
-2.33054e-06
-4.97789e-08
-2.31103e-06
-5.53156e-08
-2.28973e-06
-6.08592e-08
-2.26663e-06
-6.63987e-08
-2.24175e-06
-7.19213e-08
-2.21509e-06
-7.74149e-08
-2.18667e-06
-8.2866e-08
-2.15651e-06
-8.82609e-08
-2.12463e-06
-9.35855e-08
-2.09107e-06
-9.88241e-08
-2.05586e-06
-1.03962e-07
-2.01904e-06
-1.08982e-07
-1.98065e-06
-1.13868e-07
-1.94076e-06
-1.18604e-07
-1.89941e-06
-1.23175e-07
-1.85667e-06
-1.27562e-07
-1.8126e-06
-1.31749e-07
-1.76727e-06
-1.35717e-07
-1.72075e-06
-1.39453e-07
-1.67314e-06
-1.42947e-07
-1.62452e-06
-1.46199e-07
-1.57498e-06
-1.4921e-07
-1.5246e-06
-1.51978e-07
-1.47348e-06
-1.54471e-07
-1.4217e-06
-1.56681e-07
-1.36936e-06
-1.58623e-07
-1.31656e-06
-1.60293e-07
-1.26336e-06
-1.61678e-07
-1.20989e-06
-1.62772e-07
-1.15622e-06
-1.63571e-07
-1.10246e-06
-1.64072e-07
-1.04869e-06
-1.64278e-07
-9.95008e-07
-1.6419e-07
-9.41499e-07
-1.63815e-07
-8.88244e-07
-1.63157e-07
-8.35318e-07
-1.62226e-07
-7.82799e-07
-1.61033e-07
-7.30759e-07
-1.596e-07
-6.7927e-07
-1.57947e-07
-6.28391e-07
-1.56096e-07
-5.78177e-07
-1.54065e-07
-5.28673e-07
-1.51873e-07
-4.79918e-07
-1.4954e-07
-4.31939e-07
-1.47091e-07
-3.84761e-07
-1.4455e-07
-3.38392e-07
-1.41942e-07
-2.92839e-07
-1.39294e-07
-2.4809e-07
-1.36637e-07
-2.04134e-07
-1.34e-07
-1.60937e-07
-1.31414e-07
-1.18467e-07
-1.28911e-07
-7.66693e-08
-1.26532e-07
-3.54863e-08
-1.24308e-07
5.15709e-09
-1.2228e-07
4.53247e-08
-1.20488e-07
8.51052e-08
-1.18988e-07
1.24582e-07
-1.17796e-07
1.63983e-07
-1.16797e-07
2.03549e-07
-1.15995e-07
2.43368e-07
-1.1567e-07
2.83597e-07
-1.15937e-07
3.24365e-07
-1.16796e-07
3.66159e-07
-1.17946e-07
4.0927e-07
-1.19428e-07
4.53623e-07
-1.21867e-07
4.99426e-07
-1.25245e-07
5.46918e-07
-1.29355e-07
5.96283e-07
-1.34125e-07
6.47661e-07
-1.39471e-07
7.01046e-07
-1.45318e-07
7.564e-07
-1.51315e-07
8.13603e-07
-1.56825e-07
8.72236e-07
-1.61016e-07
9.31552e-07
-1.62404e-07
9.90376e-07
-1.58497e-07
1.04737e-06
-1.42871e-07
-1.01326e-07
1.10797e-06
-1.76225e-08
9.51287e-09
-3.82813e-08
3.11522e-08
-5.91667e-08
4.64074e-08
-8.00905e-08
5.89942e-08
-1.01245e-07
6.99189e-08
-1.22894e-07
7.94577e-08
-1.4521e-07
8.7729e-08
-1.68284e-07
9.48377e-08
-1.92074e-07
1.00905e-07
-2.16534e-07
1.06054e-07
-2.41618e-07
1.10403e-07
-2.67352e-07
1.14061e-07
-2.93751e-07
1.17144e-07
-3.2084e-07
1.19767e-07
-3.48588e-07
1.22037e-07
-3.76974e-07
1.24047e-07
-4.05926e-07
1.25869e-07
-4.35396e-07
1.27557e-07
-4.65295e-07
1.29145e-07
-4.9556e-07
1.30651e-07
-5.26096e-07
1.32077e-07
-5.56845e-07
1.33414e-07
-5.87715e-07
1.34647e-07
-6.18651e-07
1.35756e-07
-6.49559e-07
1.36717e-07
-6.80383e-07
1.37503e-07
-7.11048e-07
1.38081e-07
-7.41566e-07
1.38415e-07
-7.72023e-07
1.38503e-07
-8.02473e-07
1.3844e-07
-8.32831e-07
1.38334e-07
-8.63105e-07
1.38211e-07
-8.93238e-07
1.38095e-07
-9.23219e-07
1.37948e-07
-9.53124e-07
1.3771e-07
-9.83017e-07
1.37382e-07
-1.01296e-06
1.37001e-07
-1.04296e-06
1.36623e-07
-1.073e-06
1.36282e-07
-1.10306e-06
1.35986e-07
-1.13313e-06
1.35729e-07
-1.16321e-06
1.35507e-07
-1.19329e-06
1.3531e-07
-1.22337e-06
1.3513e-07
-1.25344e-06
1.34958e-07
-1.28349e-06
1.34785e-07
-1.31352e-06
1.34603e-07
-1.34353e-06
1.34401e-07
-1.37349e-06
1.34171e-07
-1.4034e-06
1.33904e-07
-1.43325e-06
1.33592e-07
-1.46302e-06
1.33228e-07
-1.4927e-06
1.32802e-07
-1.52226e-06
1.32307e-07
-1.5517e-06
1.31735e-07
-1.58098e-06
1.3108e-07
-1.61009e-06
1.30333e-07
-1.639e-06
1.29489e-07
-1.66768e-06
1.2854e-07
-1.69612e-06
1.27481e-07
-1.72428e-06
1.26304e-07
-1.75213e-06
1.25002e-07
-1.77966e-06
1.23572e-07
-1.80683e-06
1.22012e-07
-1.83361e-06
1.2033e-07
-1.85993e-06
1.18529e-07
-1.88572e-06
1.16583e-07
-1.91099e-06
1.14453e-07
-1.93574e-06
1.12145e-07
-1.95994e-06
1.09682e-07
-1.98352e-06
1.0707e-07
-2.00644e-06
1.04303e-07
-2.02867e-06
1.01374e-07
-2.05015e-06
9.82816e-08
-2.07086e-06
9.50216e-08
-2.09076e-06
9.15929e-08
-2.1098e-06
8.7995e-08
-2.12794e-06
8.42268e-08
-2.14515e-06
8.02882e-08
-2.16137e-06
7.61786e-08
-2.17658e-06
7.18985e-08
-2.19072e-06
6.74478e-08
-2.20377e-06
6.28274e-08
-2.21567e-06
5.80381e-08
-2.22639e-06
5.30815e-08
-2.23589e-06
4.79591e-08
-2.24412e-06
4.26732e-08
-2.25106e-06
3.72262e-08
-2.25664e-06
3.1621e-08
-2.26084e-06
2.58593e-08
-2.26364e-06
1.99446e-08
-2.265e-06
1.38799e-08
-2.26488e-06
7.67047e-09
-2.26325e-06
1.32257e-09
-2.26008e-06
-5.15741e-09
-2.25534e-06
-1.1762e-08
-2.249e-06
-1.84781e-08
-2.24103e-06
-2.52986e-08
-2.23142e-06
-3.22158e-08
-2.22014e-06
-3.92201e-08
-2.20717e-06
-4.63017e-08
-2.1925e-06
-5.34481e-08
-2.17612e-06
-6.06472e-08
-2.15802e-06
-6.7884e-08
-2.1382e-06
-7.51451e-08
-2.11664e-06
-8.24142e-08
-2.09336e-06
-8.96767e-08
-2.06836e-06
-9.69155e-08
-2.04165e-06
-1.04115e-07
-2.01324e-06
-1.11256e-07
-1.98317e-06
-1.18322e-07
-1.95145e-06
-1.25293e-07
-1.9181e-06
-1.32148e-07
-1.88318e-06
-1.38868e-07
-1.84671e-06
-1.45431e-07
-1.80875e-06
-1.51815e-07