/*--------------------------------*- C++ -*----------------------------------*\
  =========                 |
  \\      /  F ield         | OpenFOAM: The Open Source CFD Toolbox
   \\    /   O peration     | Website:  https://openfoam.org
    \\  /    A nd           | Version:  13
     \\/     M anipulation  |
\*---------------------------------------------------------------------------*/
FoamFile
{
    format      ascii;
    class       volVectorField;
    location    "200";
    object      U;
}
// * * * * * * * * * * * * * * * * * * * * * * * * * * * * * * * * * * * * * //

dimensions      [0 1 -1 0 0 0 0];

internalField   nonuniform List<vector> 
12225
(
(9.81626 -0.00911249 0)
(9.64165 0.0111562 0)
(9.44851 0.0240194 0)
(9.26128 0.0303143 0)
(9.0917 0.0328761 0)
(8.9363 0.0328393 0)
(8.79384 0.0317279 0)
(8.66227 0.0302274 0)
(8.54233 0.0285748 0)
(8.43257 0.0268107 0)
(8.33364 0.0249829 0)
(8.24386 0.0231551 0)
(8.16368 0.021327 0)
(8.09218 0.019452 0)
(8.0293 0.0174388 0)
(7.97518 0.0154911 0)
(7.92987 0.0118559 0)
(7.90549 0.0124401 0)
(10.0006 0.0579351 0)
(10.0059 0.0613541 0)
(9.97726 0.0549755 0)
(9.9359 0.0502031 0)
(9.89334 0.047309 0)
(9.85082 0.0455361 0)
(9.80705 0.0437513 0)
(9.76283 0.0420723 0)
(9.71882 0.0405184 0)
(9.67538 0.0389709 0)
(9.63244 0.0373736 0)
(9.59033 0.0356767 0)
(9.54929 0.0339049 0)
(9.50929 0.0319942 0)
(9.47101 0.0298942 0)
(9.43417 0.027342 0)
(9.4001 0.022994 0)
(9.36592 0.0174345 0)
(10.0116 0.0426311 0)
(10.0427 0.0528069 0)
(10.0445 0.0500546 0)
(10.0373 0.0497735 0)
(10.0279 0.0504044 0)
(10.0176 0.0505481 0)
(10.0052 0.0501128 0)
(9.99154 0.0493859 0)
(9.97667 0.0485135 0)
(9.96127 0.0474925 0)
(9.94516 0.0463158 0)
(9.92879 0.0449949 0)
(9.91215 0.043491 0)
(9.89548 0.0417305 0)
(9.87893 0.0396211 0)
(9.86264 0.0369322 0)
(9.84677 0.0327611 0)
(9.82915 0.0265927 0)
(10.0107 0.034364 0)
(10.0393 0.0471678 0)
(10.054 0.0488276 0)
(10.0578 0.0503976 0)
(10.0581 0.0518699 0)
(10.0582 0.052407 0)
(10.0571 0.0521744 0)
(10.0549 0.0517024 0)
(10.0517 0.0510739 0)
(10.0479 0.0503312 0)
(10.0436 0.0494325 0)
(10.039 0.0483371 0)
(10.034 0.0470678 0)
(10.0292 0.0456072 0)
(10.0242 0.0437851 0)
(10.0192 0.0413105 0)
(10.014 0.0376736 0)
(10.0073 0.0328818 0)
(10.0084 0.0262298 0)
(10.0325 0.0441684 0)
(10.0495 0.0466444 0)
(10.0577 0.0489431 0)
(10.063 0.050733 0)
(10.0675 0.051452 0)
(10.0714 0.0515175 0)
(10.0737 0.0514021 0)
(10.0752 0.0511309 0)
(10.0765 0.0506115 0)
(10.0772 0.0499039 0)
(10.0778 0.0489688 0)
(10.0781 0.0477509 0)
(10.0783 0.046287 0)
(10.0783 0.0444521 0)
(10.0781 0.0420354 0)
(10.0775 0.0388086 0)
(10.0757 0.0347423 0)
(10.0058 0.0210059 0)
(10.0253 0.038411 0)
(10.0421 0.0433004 0)
(10.0521 0.0462894 0)
(10.0596 0.0485388 0)
(10.0664 0.0496911 0)
(10.0723 0.0500853 0)
(10.0771 0.0501527 0)
(10.0812 0.0499577 0)
(10.0849 0.0495379 0)
(10.0881 0.0488151 0)
(10.0914 0.0479113 0)
(10.094 0.0468896 0)
(10.0965 0.0455475 0)
(10.0987 0.0437916 0)
(10.1007 0.0415275 0)
(10.1023 0.0386803 0)
(10.1029 0.0352335 0)
(10.0041 0.0165756 0)
(10.0189 0.0335652 0)
(10.0344 0.0394135 0)
(10.045 0.042956 0)
(10.0535 0.0456468 0)
(10.0613 0.0471514 0)
(10.0682 0.0478171 0)
(10.0743 0.0480792 0)
(10.0798 0.0480353 0)
(10.0848 0.0477187 0)
(10.0894 0.0471286 0)
(10.0937 0.046288 0)
(10.0977 0.0452482 0)
(10.1015 0.0439069 0)
(10.1051 0.0422105 0)
(10.1082 0.0400889 0)
(10.1109 0.0374697 0)
(10.1129 0.0345806 0)
(10.0029 0.0131223 0)
(10.0141 0.0290379 0)
(10.0276 0.0355764 0)
(10.038 0.0394648 0)
(10.0466 0.0423947 0)
(10.0547 0.0441594 0)
(10.0622 0.0450409 0)
(10.0689 0.0454522 0)
(10.075 0.0455255 0)
(10.0808 0.0452959 0)
(10.0861 0.0447682 0)
(10.0911 0.0439952 0)
(10.0959 0.0430061 0)
(10.1003 0.0417308 0)
(10.1045 0.0401315 0)
(10.1083 0.0381876 0)
(10.1116 0.0359229 0)
(10.1142 0.0334669 0)
(10.0021 0.0104748 0)
(10.0105 0.0249459 0)
(10.022 0.0318597 0)
(10.0318 0.0359343 0)
(10.0401 0.0389551 0)
(10.048 0.0408855 0)
(10.0556 0.0419326 0)
(10.0625 0.0424581 0)
(10.0689 0.0426172 0)
(10.075 0.0424553 0)
(10.0807 0.041994 0)
(10.0861 0.0412739 0)
(10.0912 0.0403234 0)
(10.096 0.0391096 0)
(10.1004 0.0376126 0)
(10.1045 0.0358349 0)
(10.1082 0.0338237 0)
(10.1113 0.0317021 0)
(10.0015 0.00844293 0)
(10.0079 0.0213048 0)
(10.0176 0.0282856 0)
(10.0265 0.0324378 0)
(10.0344 0.0354549 0)
(10.0419 0.0374644 0)
(10.0492 0.0386173 0)
(10.0561 0.0392168 0)
(10.0625 0.0394309 0)
(10.0686 0.0393172 0)
(10.0744 0.0389069 0)
(10.0799 0.0382353 0)
(10.0852 0.037329 0)
(10.0901 0.0361814 0)
(10.0947 0.0347903 0)
(10.0989 0.0331746 0)
(10.1027 0.0313868 0)
(10.106 0.0295258 0)
(10.0011 0.006868 0)
(10.006 0.0181037 0)
(10.0141 0.0248822 0)
(10.0222 0.0290133 0)
(10.0295 0.0319608 0)
(10.0366 0.0339763 0)
(10.0436 0.0351802 0)
(10.0502 0.0358187 0)
(10.0565 0.0360605 0)
(10.0625 0.0359745 0)
(10.0682 0.035598 0)
(10.0736 0.0349653 0)
(10.0788 0.0341041 0)
(10.0837 0.0330241 0)
(10.0883 0.0317367 0)
(10.0925 0.0302688 0)
(10.0963 0.0286698 0)
(10.0998 0.0270207 0)
(10.0008 0.0056911 0)
(10.0047 0.0155006 0)
(10.0116 0.0219136 0)
(10.0189 0.02594 0)
(10.0258 0.0287796 0)
(10.0325 0.0307495 0)
(10.0391 0.0319583 0)
(10.0454 0.0326065 0)
(10.0515 0.0328551 0)
(10.0573 0.0327804 0)
(10.0629 0.0324236 0)
(10.0682 0.03182 0)
(10.0732 0.0309993 0)
(10.078 0.0299805 0)
(10.0824 0.0287829 0)
(10.0866 0.0274367 0)
(10.0904 0.0259844 0)
(10.0939 0.0244961 0)
(10.0007 0.00473085 0)
(10.0038 0.0131908 0)
(10.0096 0.0190963 0)
(10.0162 0.0229414 0)
(10.0226 0.0256421 0)
(10.0289 0.0275297 0)
(10.0351 0.0287126 0)
(10.0412 0.0293532 0)
(10.047 0.0295979 0)
(10.0526 0.0295267 0)
(10.058 0.0291843 0)
(10.0631 0.028607 0)
(10.068 0.0278262 0)
(10.0726 0.0268665 0)
(10.077 0.0257522 0)
(10.081 0.0245141 0)
(10.0847 0.0231878 0)
(10.0882 0.0218365 0)
(10.0005 0.00384156 0)
(10.003 0.0108767 0)
(10.0079 0.0160867 0)
(10.0137 0.0196226 0)
(10.0196 0.0221074 0)
(10.0255 0.0238499 0)
(10.0313 0.0249618 0)
(10.0371 0.0255685 0)
(10.0426 0.0257941 0)
(10.048 0.0257175 0)
(10.0531 0.0253859 0)
(10.058 0.0248361 0)
(10.0627 0.0241001 0)
(10.0672 0.023206 0)
(10.0713 0.0221799 0)
(10.0752 0.0210521 0)
(10.0788 0.0198513 0)
(10.0822 0.0186331 0)
(10.0004 0.00300023 0)
(10.0024 0.00857651 0)
(10.0064 0.0129192 0)
(10.0115 0.0159921 0)
(10.0168 0.0181636 0)
(10.0222 0.0196855 0)
(10.0277 0.0206661 0)
(10.0331 0.0211999 0)
(10.0384 0.0213838 0)
(10.0435 0.0212893 0)
(10.0484 0.0209632 0)
(10.053 0.0204414 0)
(10.0575 0.0197551 0)
(10.0617 0.0189325 0)
(10.0657 0.0179999 0)
(10.0695 0.0169841 0)
(10.073 0.0159089 0)
(10.0763 0.0148208 0)
(10.0003 0.00218971 0)
(10.0019 0.00629739 0)
(10.0053 0.00962129 0)
(10.0096 0.0120614 0)
(10.0144 0.0138004 0)
(10.0194 0.0150117 0)
(10.0244 0.0157865 0)
(10.0295 0.0161931 0)
(10.0344 0.0163012 0)
(10.0393 0.0161687 0)
(10.0439 0.0158376 0)
(10.0484 0.0153399 0)
(10.0526 0.0147043 0)
(10.0566 0.013956 0)
(10.0605 0.0131191 0)
(10.064 0.0122161 0)
(10.0674 0.0112654 0)
(10.0706 0.0103067 0)
(10.0003 0.00139057 0)
(10.0016 0.00401199 0)
(10.0044 0.006186 0)
(10.0082 0.00782335 0)
(10.0125 0.00899391 0)
(10.0171 0.00979145 0)
(10.0217 0.0102754 0)
(10.0264 0.0104894 0)
(10.0311 0.0104771 0)
(10.0356 0.0102785 0)
(10.04 0.00992482 0)
(10.0442 0.00944195 0)
(10.0483 0.00885208 0)
(10.0521 0.00817624 0)
(10.0558 0.00743293 0)
(10.0592 0.00664061 0)
(10.0625 0.00581179 0)
(10.0655 0.00497996 0)
(10.0002 0.000568181 0)
(10.0014 0.00163813 0)
(10.0039 0.00253076 0)
(10.0073 0.00320071 0)
(10.0112 0.00365745 0)
(10.0154 0.00392556 0)
(10.0198 0.0040246 0)
(10.0242 0.00397156 0)
(10.0286 0.00378489 0)
(10.0329 0.00348305 0)
(10.0371 0.00308258 0)
(10.0411 0.00259849 0)
(10.045 0.00204467 0)
(10.0486 0.00143461 0)
(10.0521 0.000780767 0)
(10.0554 9.54562e-05 0)
(10.0586 -0.000613158 0)
(10.0615 -0.00131912 0)
(10.0002 -0.000348688 0)
(10.0013 -0.00100918 0)
(10.0037 -0.00156672 0)
(10.0071 -0.00201569 0)
(10.0109 -0.00239828 0)
(10.0149 -0.00275973 0)
(10.0191 -0.0031257 0)
(10.0234 -0.00350811 0)
(10.0276 -0.00391583 0)
(10.0317 -0.00435425 0)
(10.0358 -0.00482568 0)
(10.0396 -0.00532843 0)
(10.0433 -0.00585962 0)
(10.0469 -0.00641445 0)
(10.0503 -0.0069882 0)
(10.0535 -0.00757474 0)
(10.0565 -0.00817097 0)
(10.0594 -0.00875834 0)
(10.0003 -0.00126653 0)
(10.0015 -0.0036463 0)
(10.0042 -0.00559587 0)
(10.0079 -0.00707167 0)
(10.0119 -0.00820167 0)
(10.0161 -0.00911559 0)
(10.0204 -0.00988103 0)
(10.0247 -0.0105384 0)
(10.0289 -0.0111235 0)
(10.033 -0.0116669 0)
(10.037 -0.0121872 0)
(10.0408 -0.0126963 0)
(10.0445 -0.0132001 0)
(10.048 -0.013703 0)
(10.0513 -0.0142053 0)
(10.0545 -0.0147072 0)
(10.0575 -0.0152081 0)
(10.0603 -0.0156969 0)
(10.0003 -0.00215739 0)
(10.0019 -0.00614727 0)
(10.0052 -0.0092597 0)
(10.0094 -0.0114862 0)
(10.0138 -0.0131276 0)
(10.0183 -0.0144092 0)
(10.0227 -0.0154251 0)
(10.0272 -0.0162389 0)
(10.0315 -0.0169146 0)
(10.0357 -0.0175022 0)
(10.0398 -0.0180318 0)
(10.0436 -0.0185237 0)
(10.0473 -0.0189907 0)
(10.0508 -0.0194426 0)
(10.0541 -0.0198833 0)
(10.0572 -0.0203154 0)
(10.0602 -0.0207407 0)
(10.063 -0.0211515 0)
(10.0005 -0.00319537 0)
(10.0026 -0.00892309 0)
(10.0069 -0.0130558 0)
(10.0118 -0.0158142 0)
(10.0168 -0.0178039 0)
(10.0216 -0.0193306 0)
(10.0264 -0.0204923 0)
(10.031 -0.0213797 0)
(10.0355 -0.0220869 0)
(10.0398 -0.0226768 0)
(10.044 -0.0231867 0)
(10.0479 -0.0236416 0)
(10.0516 -0.0240619 0)
(10.0551 -0.0244588 0)
(10.0584 -0.024839 0)
(10.0616 -0.0252044 0)
(10.0646 -0.0255604 0)
(10.0674 -0.0259014 0)
(10.0007 -0.00452097 0)
(10.0039 -0.0121707 0)
(10.0095 -0.0170902 0)
(10.0154 -0.0201357 0)
(10.0209 -0.0223291 0)
(10.0261 -0.0239838 0)
(10.0313 -0.0251871 0)
(10.0362 -0.0260735 0)
(10.0409 -0.0267609 0)
(10.0453 -0.0273152 0)
(10.0495 -0.0277741 0)
(10.0535 -0.0281697 0)
(10.0572 -0.0285289 0)
(10.0607 -0.028865 0)
(10.064 -0.0291806 0)
(10.0671 -0.0294773 0)
(10.0701 -0.0297608 0)
(10.0728 -0.0300279 0)
(10.0011 -0.00634799 0)
(10.0059 -0.0160496 0)
(10.0134 -0.0213665 0)
(10.0204 -0.0244503 0)
(10.0264 -0.0267243 0)
(10.0321 -0.0283846 0)
(10.0375 -0.0295241 0)
(10.0426 -0.0303412 0)
(10.0474 -0.0309605 0)
(10.0518 -0.0314384 0)
(10.056 -0.0318092 0)
(10.0598 -0.0321137 0)
(10.0634 -0.0323874 0)
(10.0668 -0.0326416 0)
(10.0699 -0.0328753 0)
(10.0728 -0.0330918 0)
(10.0756 -0.0333004 0)
(10.0781 -0.0334959 0)
(10.0019 -0.00899207 0)
(10.0093 -0.0206525 0)
(10.019 -0.0258275 0)
(10.0269 -0.0287299 0)
(10.0333 -0.0309413 0)
(10.0392 -0.0324627 0)
(10.0446 -0.0334314 0)
(10.0496 -0.0341021 0)
(10.0541 -0.0345867 0)
(10.0581 -0.034939 0)
(10.0618 -0.0351885 0)
(10.0652 -0.0353778 0)
(10.0682 -0.0355495 0)
(10.071 -0.0356955 0)
(10.0736 -0.0358006 0)
(10.076 -0.0358797 0)
(10.0781 -0.0359678 0)
(10.08 -0.0360286 0)
(10.0032 -0.0128453 0)
(10.0145 -0.0259571 0)
(10.0265 -0.0303679 0)
(10.0346 -0.0328752 0)
(10.0406 -0.0347565 0)
(10.0459 -0.0359113 0)
(10.0506 -0.0365844 0)
(10.0545 -0.0370071 0)
(10.0578 -0.0372601 0)
(10.0607 -0.0374069 0)
(10.0632 -0.0374319 0)
(10.0656 -0.0373755 0)
(10.0675 -0.0373615 0)
(10.0689 -0.0374233 0)
(10.0702 -0.0375029 0)
(10.0713 -0.0375391 0)
(10.0722 -0.0375519 0)
(10.0729 -0.0375899 0)
(10.0054 -0.0180491 0)
(10.0215 -0.0316527 0)
(10.0345 -0.0344865 0)
(10.0408 -0.0363734 0)
(10.0444 -0.037797 0)
(10.0478 -0.038199 0)
(10.05 -0.038345 0)
(10.0511 -0.0385766 0)
(10.0517 -0.0386427 0)
(10.0519 -0.0386169 0)
(10.0517 -0.03857 0)
(10.0512 -0.0384514 0)
(10.0505 -0.0382458 0)
(10.0496 -0.037998 0)
(10.0484 -0.0377761 0)
(10.0471 -0.0375966 0)
(10.0455 -0.0374347 0)
(10.0438 -0.0372937 0)
(10.0076 -0.0272304 0)
(10.0269 -0.0362121 0)
(10.0378 -0.0358465 0)
(10.036 -0.0364695 0)
(10.0335 -0.0376787 0)
(10.0304 -0.0384114 0)
(10.0265 -0.0383244 0)
(10.0216 -0.0381649 0)
(10.016 -0.037983 0)
(10.0099 -0.0377498 0)
(10.0035 -0.0374693 0)
(9.99687 -0.0371345 0)
(9.99005 -0.0367667 0)
(9.98312 -0.0363986 0)
(9.97614 -0.0360489 0)
(9.96908 -0.0356976 0)
(9.96197 -0.0353346 0)
(9.95483 -0.0349343 0)
(10.0044 -0.0367378 0)
(10.0135 -0.0444766 0)
(10.0023 -0.0406807 0)
(9.98144 -0.0372858 0)
(9.95948 -0.03543 0)
(9.93746 -0.0342438 0)
(9.91499 -0.0331341 0)
(9.89223 -0.0322248 0)
(9.86947 -0.0314795 0)
(9.84698 -0.030822 0)
(9.82479 -0.0302126 0)
(9.80306 -0.0296187 0)
(9.78185 -0.0290514 0)
(9.7612 -0.0285057 0)
(9.74113 -0.0279843 0)
(9.72159 -0.0274565 0)
(9.70266 -0.0269439 0)
(9.68395 -0.0262078 0)
(9.89559 -0.00402464 0)
(9.80088 -0.0164868 0)
(9.69149 -0.0232842 0)
(9.58312 -0.0264879 0)
(9.48416 -0.0273716 0)
(9.39355 -0.0271203 0)
(9.30945 -0.0263671 0)
(9.23112 -0.0254441 0)
(9.15825 -0.0244756 0)
(9.09034 -0.023492 0)
(9.02711 -0.0225205 0)
(8.96813 -0.0215869 0)
(8.91308 -0.0206954 0)
(8.86176 -0.0198487 0)
(8.81381 -0.0190396 0)
(8.76912 -0.0182617 0)
(8.72742 -0.0175314 0)
(8.68787 -0.0165722 0)
(0.00754667 -0.017925 -8.58138e-19)
(0.018356 -0.0189225 6.91825e-19)
(0.0247093 -0.00896244 0)
(0.0221743 0.00329051 0)
(0.0135021 0.0116316 0)
(0.000327738 0.0172564 -3.12372e-19)
(-0.0162407 0.019637 0)
(-0.0349382 0.0221714 0)
(-0.05585 0.0270605 0)
(-0.0797595 0.0341141 0)
(-0.106585 0.0403162 1.46103e-19)
(-0.13547 0.0429241 0)
(-0.165225 0.0433983 0)
(-0.195312 0.0430409 0)
(-0.225511 0.0424667 0)
(-0.255741 0.0419363 9.44642e-20)
(-0.285997 0.0415549 0)
(-0.31632 0.0413447 0)
(-0.346767 0.0412906 0)
(-0.377406 0.0413479 0)
(-0.408321 0.0414486 0)
(-0.439585 0.0414939 0)
(-0.471178 0.0414067 0)
(-0.50305 0.0410871 6.81632e-20)
(-0.535207 0.0404791 -6.69309e-20)
(-0.567586 0.0397351 6.58093e-20)
(-0.60012 0.0391852 6.46079e-20)
(-0.632976 0.0386358 0)
(-0.666424 0.0383461 0)
(-0.700065 0.0386733 -5.89965e-20)
(-0.733756 0.0391859 -5.72017e-20)
(-0.767806 0.0394122 0)
(-0.800803 0.0396361 0)
(-0.836193 0.0363953 -7.06382e-20)
(-0.872984 0.0334947 0)
(-0.906332 0.0328305 0)
(-0.941367 0.0315919 7.08299e-20)
(-0.976145 0.0312204 0)
(-1.01078 0.0313504 6.69832e-20)
(-1.04551 0.0311278 1.30492e-19)
(-1.08011 0.030832 0)
(-1.11465 0.0305455 0)
(-1.14915 0.0302813 0)
(-1.18363 0.0300299 0)
(-1.2181 0.0297933 0)
(-1.25255 0.0295622 1.13343e-19)
(-1.28701 0.02934 1.10979e-19)
(-1.32147 0.0291178 1.08726e-19)
(-1.35593 0.0288993 0)
(-1.39039 0.0286761 -1.04526e-19)
(-1.42484 0.0284531 0)
(-1.45927 0.0282214 1.00685e-19)
(-1.49367 0.0279861 9.88851e-20)
(-1.52802 0.0277398 0)
(-1.56232 0.0274877 0)
(-1.59654 0.0272221 0)
(-1.63066 0.0269494 9.23695e-20)
(-1.66467 0.0266639 0)
(-1.69853 0.0263717 0)
(-1.73223 0.0260641 0)
(-1.76572 0.0257431 0)
(-1.79898 0.0253942 0)
(-1.83196 0.025017 0)
(-1.86465 0.0246103 0)
(-1.89704 0.0241955 0)
(-1.92912 0.0237342 -8.07389e-20)
(-1.9609 0.0232394 0)
(-1.99231 0.0227579 0)
(-2.02319 0.0222912 7.75002e-20)
(-2.0535 0.0218087 7.6478e-20)
(-2.08327 0.0213022 0)
(-2.11247 0.0207632 -7.45006e-20)
(-2.14107 0.0202026 7.35412e-20)
(-2.16902 0.0196161 0)
(-2.19627 0.0190122 -7.16721e-20)
(-2.2228 0.0183845 0)
(-2.24855 0.0177405 0)
(-2.27347 0.0170743 6.89659e-20)
(-2.29753 0.0163927 0)
(-2.32068 0.0156888 -6.72067e-20)
(-2.34288 0.0149697 0)
(-2.36408 0.0142295 6.54676e-20)
(-2.38424 0.0134749 6.46015e-20)
(-2.40332 0.0126993 6.37356e-20)
(-2.42128 0.01191 1.25736e-19)
(-2.43807 0.0111011 -1.23995e-19)
(-2.45364 0.0102788 0)
(-2.46796 0.00943651 0)
(-2.48096 0.00857776 0)
(-2.49261 0.00770097 -1.16905e-19)
(-2.50288 0.00680255 -1.15086e-19)
(-2.51175 0.00587939 1.13244e-19)
(-2.51916 0.0049273 0)
(-2.52507 0.00396711 -1.09473e-19)
(-2.52947 0.00306931 -1.07538e-19)
(-2.53229 0.00188092 -1.05546e-19)
(-2.53344 0.000828805 0)
(-2.53298 -0.000218135 0)
(-2.53085 -0.0011563 0)
(-2.52705 -0.00220839 -9.70105e-20)
(-2.52154 -0.0032465 0)
(-2.51428 -0.00426952 0)
(-2.50526 -0.00529998 9.0016e-20)
(-2.49445 -0.00633652 0)
(-2.48185 -0.00737637 0)
(-2.46744 -0.0084194 8.23953e-20)
(-2.4512 -0.00946295 0)
(-2.43313 -0.0105068 0)
(-2.41324 -0.0115485 -7.40374e-20)
(-2.39152 -0.0125871 -7.10685e-20)
(-2.36798 -0.0136203 0)
(-2.34264 -0.0146459 6.48308e-20)
(-2.31552 -0.0156622 0)
(-2.28664 -0.0166656 -5.81654e-20)
(-2.25602 -0.0176549 0)
(-2.22369 -0.0186253 -5.10386e-20)
(-2.18971 -0.0195761 -4.72922e-20)
(-2.1541 -0.0205015 0)
(-2.11693 -0.021401 0)
(-2.07824 -0.0222683 0)
(-2.03808 -0.0231035 0)
(-1.99652 -0.0239014 0)
(-1.95363 -0.0246667 0)
(-1.90947 -0.0253939 0)
(-1.86414 -0.0260876 -1.24489e-20)
(-1.81771 -0.0267353 7.43884e-21)
(-1.77026 -0.0273428 0)
(-1.72187 -0.0279026 0)
(-1.67265 -0.0284208 0)
(-1.62266 -0.0288846 0)
(-1.572 -0.0292993 -3.9962e-20)
(-1.52076 -0.0296553 0)
(-1.46904 -0.0299574 6.42037e-20)
(-1.41693 -0.0301975 -7.68366e-20)
(-1.36453 -0.03038 0)
(-1.31194 -0.0304996 0)
(-1.25925 -0.0305581 0)
(-1.20655 -0.0305522 1.30863e-19)
(-1.15391 -0.030482 1.4526e-19)
(-1.10142 -0.0303511 0)
(-1.04918 -0.0301617 1.75142e-19)
(-0.997259 -0.0299202 1.90627e-19)
(-0.945742 -0.0296258 -2.06475e-19)
(-0.894697 -0.0292829 0)
(-0.844189 -0.0288891 0)
(-0.794278 -0.0284523 -2.56208e-19)
(-0.745014 -0.0279712 0)
(-0.696441 -0.0274554 0)
(-0.648596 -0.0269033 0)
(-0.601504 -0.026326 0)
(-0.555186 -0.0257241 3.46499e-19)
(-0.509648 -0.0251107 3.65701e-19)
(-0.464891 -0.0244855 0)
(-0.420904 -0.0238647 4.05315e-19)
(-0.377668 -0.0232507 0)
(-0.335152 -0.0226633 0)
(-0.293311 -0.0221158 4.68035e-19)
(-0.252084 -0.0216492 0)
(-0.21139 -0.0213104 5.12414e-19)
(-0.171197 -0.0211648 0)
(-0.13083 -0.020684 0)
(-0.0911605 -0.0195173 5.84602e-19)
(-0.0523191 -0.0188838 0)
(-0.0134058 -0.0188415 6.37572e-19)
(0.0255772 -0.0194888 0)
(0.0645316 -0.017263 0)
(0.101946 -0.0155391 0)
(0.139493 -0.0155159 -6.33616e-19)
(0.178092 -0.0155979 0)
(0.217597 -0.0154413 6.08565e-19)
(0.258232 -0.0153538 0)
(0.300374 -0.0155767 0)
(0.3444 -0.0165554 0)
(0.390866 -0.0175106 0)
(0.439424 -0.0179058 0)
(0.489827 -0.0180677 0)
(0.541924 -0.0177623 0)
(0.591483 -0.0168125 -1.04296e-18)
(0.645515 -0.012453 0)
(0.649402 0.00624345 0)
(0.0024572 -0.0365326 1.98495e-18)
(0.00135962 -0.0192542 -1.08361e-18)
(-0.00591281 0.00266194 0)
(-0.0165031 0.0217749 3.17103e-19)
(-0.0302847 0.0368409 0)
(-0.0469626 0.0481634 1.1759e-19)
(-0.0663427 0.0565599 -2.11599e-19)
(-0.0882299 0.062922 -1.92676e-19)
(-0.111714 0.0684516 0)
(-0.136043 0.0733354 -1.63712e-19)
(-0.160595 0.077322 -7.62847e-20)
(-0.185669 0.079915 0)
(-0.211572 0.0812798 0)
(-0.238349 0.0818294 0)
(-0.265905 0.0819209 0)
(-0.294128 0.0817957 -5.77506e-20)
(-0.322922 0.0816127 0)
(-0.352225 0.0814655 1.06614e-19)
(-0.381989 0.0814071 0)
(-0.412187 0.0814485 0)
(-0.442806 0.081582 -9.79489e-20)
(-0.473841 0.0817688 0)
(-0.505276 0.0819636 9.45662e-20)
(-0.537131 0.0821414 -4.68842e-20)
(-0.569472 0.0823133 4.66147e-20)
(-0.602331 0.0825166 -4.65219e-20)
(-0.635629 0.0828539 -4.6558e-20)
(-0.669548 0.0833731 0)
(-0.703547 0.0835614 0)
(-0.736945 0.0829972 4.43512e-20)
(-0.770699 0.0822697 -4.40355e-20)
(-0.804455 0.0819911 0)
(-0.837878 0.0823291 0)
(-0.872027 0.0837976 4.56318e-20)
(-0.905772 0.0841243 0)
(-0.939214 0.0842484 0)
(-0.972418 0.0838438 -4.13587e-20)
(-1.00552 0.0826871 0)
(-1.03859 0.0816477 3.92132e-20)
(-1.07143 0.0808058 -7.69971e-20)
(-1.10419 0.0800102 0)
(-1.13691 0.0792585 0)
(-1.16959 0.0785499 -1.44069e-19)
(-1.20225 0.0778709 -1.41183e-19)
(-1.23489 0.0772183 -1.38428e-19)
(-1.26752 0.0765789 6.77144e-20)
(-1.30014 0.0759515 -6.68169e-20)
(-1.33274 0.0753241 -1.96455e-19)
(-1.36533 0.0746969 1.28523e-19)
(-1.39789 0.0740585 6.33246e-20)
(-1.43043 0.0734106 0)
(-1.46292 0.0727426 -6.12081e-20)
(-1.49537 0.0720566 5.98451e-20)
(-1.52774 0.071343 0)
(-1.56003 0.0706035 0)
(-1.59221 0.0698284 0)
(-1.62427 0.0690211 -5.65086e-20)
(-1.65619 0.0681738 0)
(-1.68795 0.0672901 1.09303e-19)
(-1.7195 0.06636 0)
(-1.75084 0.065383 1.06123e-19)
(-1.78193 0.0643419 0)
(-1.81275 0.0632289 -1.03105e-19)
(-1.84329 0.0620267 0)
(-1.87351 0.0607651 1.00247e-19)
(-1.9031 0.0596617 -4.92788e-20)
(-1.9323 0.0587774 0)
(-1.96141 0.0576223 -9.61448e-20)
(-1.99002 0.0560808 -4.7561e-20)
(-2.01802 0.0544983 -4.69102e-20)
(-2.04543 0.0529893 0)
(-2.07227 0.051474 -4.53628e-20)
(-2.09847 0.0499083 -4.5014e-20)
(-2.124 0.0482845 0)
(-2.14883 0.0466118 4.37851e-20)
(-2.17291 0.0448847 -8.61155e-20)
(-2.19621 0.043112 0)
(-2.21867 0.0412887 -4.19758e-20)
(-2.24027 0.0394226 0)
(-2.26095 0.0375074 1.22143e-19)
(-2.28067 0.0355515 0)
(-2.2994 0.0335496 -1.18587e-19)
(-2.31708 0.0315095 -3.89908e-20)
(-2.33369 0.0294257 3.82348e-20)
(-2.34917 0.0273069 7.52886e-20)
(-2.36349 0.0251489 -7.4101e-20)
(-2.3766 0.0229599 0)
(-2.38846 0.0207354 0)
(-2.39901 0.0184817 0)
(-2.40823 0.016199 2.08065e-19)
(-2.41608 0.0138882 6.81342e-20)
(-2.42254 0.0115522 -6.68491e-20)
(-2.42758 0.00919442 0)
(-2.43114 0.0068206 -6.42071e-20)
(-2.43319 0.00442996 6.28988e-20)
(-2.43368 0.00201259 6.15121e-20)
(-2.43262 -0.000391549 0)
(-2.42995 -0.00280152 0)
(-2.42562 -0.00522298 0)
(-2.41961 -0.00763805 5.56951e-20)
(-2.41191 -0.0100539 0)
(-2.40249 -0.012468 -1.05494e-19)
(-2.39133 -0.0148701 -1.53376e-19)
(-2.37842 -0.0172554 9.91466e-20)
(-2.36374 -0.0196181 0)
(-2.34727 -0.0219546 4.64758e-20)
(-2.32902 -0.0242588 0)
(-2.30898 -0.0265272 8.56051e-20)
(-2.28714 -0.0287542 -4.12936e-20)
(-2.26353 -0.0309357 -3.94895e-20)
(-2.23814 -0.0330664 0)
(-2.21099 -0.0351414 -1.05919e-19)
(-2.18211 -0.0371556 6.69488e-20)
(-2.15151 -0.0391034 3.11025e-20)
(-2.11923 -0.04098 0)
(-2.0853 -0.0427794 2.69629e-20)
(-2.04977 -0.0444976 7.53928e-20)
(-2.01268 -0.0461283 0)
(-1.97408 -0.0476677 4.18786e-20)
(-1.93403 -0.0491082 3.74184e-20)
(-1.89258 -0.0504463 3.28808e-20)
(-1.84979 -0.0516757 0)
(-1.80575 -0.0527999 0)
(-1.76053 -0.0538189 0)
(-1.71421 -0.0547445 -7.59815e-21)
(-1.66687 -0.0555606 -3.96076e-21)
(-1.6186 -0.0562597 0)
(-1.56948 -0.0568433 7.88371e-22)
(-1.5196 -0.0573287 5.82503e-21)
(-1.46904 -0.0577022 0)
(-1.4179 -0.0579675 1.73448e-20)
(-1.36626 -0.0581177 4.2362e-20)
(-1.31422 -0.05816 -2.77078e-20)
(-1.26187 -0.0580887 -3.02222e-20)
(-1.20931 -0.0579114 0)
(-1.15663 -0.0576261 0)
(-1.10392 -0.0572393 0)
(-1.05127 -0.0567504 -5.38688e-20)
(-0.998751 -0.0561652 5.64131e-20)
(-0.946453 -0.0554888 1.2595e-19)
(-0.894454 -0.0547313 -6.94904e-20)
(-0.842834 -0.0539019 7.20476e-20)
(-0.791666 -0.0530093 7.97597e-20)
(-0.741014 -0.0520591 0)
(-0.690934 -0.0510581 0)
(-0.641478 -0.0500126 -9.23938e-20)
(-0.592689 -0.0489317 0)
(-0.544603 -0.0478226 0)
(-0.497246 -0.0466945 2.16247e-19)
(-0.450635 -0.0455543 0)
(-0.404779 -0.044414 1.1636e-19)
(-0.359677 -0.0432801 -1.2286e-19)
(-0.315317 -0.0421637 0)
(-0.271677 -0.0410713 1.29618e-19)
(-0.228725 -0.0400161 0)
(-0.186415 -0.0390011 0)
(-0.144685 -0.0380409 -1.43351e-19)
(-0.103458 -0.0371442 2.92709e-19)
(-0.0626522 -0.036324 -1.50647e-19)
(-0.0222212 -0.0355706 0)
(0.0180231 -0.0347658 0)
(0.0580064 -0.0340158 1.57898e-19)
(0.0978368 -0.0335015 0)
(0.137934 -0.033145 1.58559e-19)
(0.178372 -0.0329431 0)
(0.219699 -0.0327829 0)
(0.262108 -0.0323511 0)
(0.305582 -0.0323668 1.59355e-19)
(0.350392 -0.0327917 0)
(0.396784 -0.0334783 -1.58917e-19)
(0.444992 -0.0343735 0)
(0.495289 -0.0354379 0)
(0.54781 -0.0366951 3.15815e-19)
(0.602649 -0.038073 -3.15421e-19)
(0.659787 -0.039333 0)
(0.7189 -0.0402326 0)
(0.779664 -0.0402867 0)
(0.83894 -0.0386737 9.53441e-19)
(0.901108 -0.0324705 0)
(0.936562 -0.0115956 -6.60732e-19)
(-0.00699288 -0.0270479 -1.11939e-21)
(-0.0167559 0.00333282 9.6381e-19)
(-0.029735 0.0300637 0)
(-0.0450202 0.0524289 -3.91703e-19)
(-0.0617641 0.0709691 0)
(-0.0797526 0.0860706 0)
(-0.0991418 0.098212 2.69116e-23)
(-0.119964 0.107981 1.24337e-19)
(-0.14195 0.11594 1.16718e-19)
(-0.164725 0.122395 1.10232e-19)
(-0.188039 0.127445 0)
(-0.21191 0.131145 0)
(-0.236459 0.133688 -9.50931e-20)
(-0.261748 0.135358 -1.82292e-19)
(-0.287777 0.136433 1.75312e-19)
(-0.314507 0.137142 0)
(-0.341887 0.137656 1.63744e-19)
(-0.369858 0.138098 -7.9499e-20)
(-0.398361 0.13855 0)
(-0.427342 0.139052 1.51176e-19)
(-0.456753 0.139613 7.40359e-20)
(-0.486551 0.140209 -1.45385e-19)
(-0.516704 0.140813 -7.15781e-20)
(-0.547186 0.141406 0)
(-0.577956 0.14197 1.39086e-19)
(-0.608946 0.142462 1.36978e-19)
(-0.640045 0.142797 0)
(-0.671126 0.14275 1.31894e-19)
(-0.702048 0.142013 0)
(-0.732831 0.140949 1.26193e-19)
(-0.763677 0.140032 6.2212e-20)
(-0.794439 0.139083 0)
(-0.825029 0.138263 0)
(-0.855489 0.137357 0)
(-0.885754 0.136109 0)
(-0.915872 0.134612 0)
(-0.945902 0.132893 0)
(-0.975993 0.131233 1.07481e-19)
(-1.0062 0.129741 -1.57908e-19)
(-1.03639 0.128373 0)
(-1.06659 0.127097 0)
(-1.09679 0.125892 0)
(-1.12699 0.124747 1.8346e-22)
(-1.15721 0.123644 9.55183e-20)
(-1.18744 0.122574 1.87392e-19)
(-1.21767 0.121523 -1.84068e-19)
(-1.24791 0.120482 -9.03387e-20)
(-1.27816 0.119441 8.8989e-20)
(-1.30839 0.118393 -1.93649e-22)
(-1.33862 0.117329 8.58701e-20)
(-1.36883 0.116243 0)
(-1.399 0.115127 8.31325e-20)
(-1.42913 0.113976 -1.95154e-22)
(-1.4592 0.112784 0)
(-1.48919 0.111546 0)
(-1.51909 0.110256 -7.81338e-20)
(-1.54887 0.10891 0)
(-1.57852 0.107504 0)
(-1.60801 0.106036 7.45407e-20)
(-1.63731 0.104499 1.47302e-19)
(-1.6664 0.10289 -7.27822e-20)
(-1.69525 0.101202 0)
(-1.72385 0.0994354 7.07354e-20)
(-1.75217 0.0975939 0)
(-1.78022 0.0957017 6.84252e-20)
(-1.80793 0.0938179 6.78241e-20)
(-1.83518 0.0918666 -1.33414e-19)
(-1.86194 0.089692 -6.56133e-20)
(-1.88823 0.0873587 0)
(-1.91408 0.0849809 1.27943e-19)
(-1.93943 0.082571 0)
(-1.96422 0.0800952 1.86768e-19)
(-1.9884 0.0775417 1.22673e-19)
(-2.01193 0.0749066 1.20948e-19)
(-2.03478 0.072193 -1.19235e-19)
(-2.05691 0.0694006 1.76426e-19)
(-2.07829 0.0665338 0)
(-2.09886 0.0635924 0)
(-2.11859 0.0605803 -1.12458e-19)
(-2.13745 0.0574972 -1.66261e-19)
(-2.15538 0.0543475 0)
(-2.17234 0.0511313 5.37861e-20)
(-2.1883 0.0478527 0)
(-2.20322 0.0445121 -1.56068e-19)
(-2.21705 0.0411148 -1.32031e-22)
(-2.22975 0.0376615 1.15762e-22)
(-2.24129 0.0341575 9.88262e-20)
(-2.25161 0.0306039 0)
(-2.26068 0.027005 -9.53105e-20)
(-2.26845 0.0233631 -4.51215e-23)
(-2.2749 0.0196801 0)
(-2.27999 0.0159592 0)
(-2.28369 0.0122051 0)
(-2.28596 0.008424 8.61765e-20)
(-2.28676 0.00462041 0)
(-2.28605 0.000790034 0)
(-2.28383 -0.00303809 0)
(-2.28003 -0.00686921 0)
(-2.27463 -0.0106974 0)
(-2.26761 -0.0145232 7.40978e-20)
(-2.25895 -0.0183375 0)
(-2.24862 -0.0221331 6.95784e-20)
(-2.2366 -0.0259034 6.73455e-20)
(-2.22289 -0.0296404 -6.50749e-20)
(-2.20747 -0.0333365 0)
(-2.19032 -0.036984 -6.04169e-20)
(-2.17144 -0.0405754 0)
(-2.15082 -0.044103 -5.56e-20)
(-2.12849 -0.0475592 5.31313e-20)
(-2.10442 -0.0509364 1.52672e-19)
(-2.07865 -0.0542265 0)
(-2.05119 -0.0574217 1.37355e-19)
(-2.02205 -0.0605134 4.3809e-20)
(-1.99126 -0.0634934 0)
(-1.95885 -0.0663531 7.60097e-20)
(-1.92485 -0.0690844 7.05684e-20)
(-1.88932 -0.0716792 -9.70064e-20)
(-1.85229 -0.0741304 0)
(-1.81381 -0.0764293 -2.62881e-20)
(-1.77395 -0.0785676 -2.34073e-20)
(-1.73275 -0.0805376 -6.281e-20)
(-1.69029 -0.082334 0)
(-1.64663 -0.0839553 0)
(-1.60186 -0.0854039 0)
(-1.55605 -0.0866894 -1.00709e-20)
(-1.5093 -0.0878089 0)
(-1.46167 -0.0887437 0)
(-1.41325 -0.0894942 -4.78852e-22)
(-1.36414 -0.0900771 -3.52452e-21)
(-1.3144 -0.0904899 0)
(-1.26413 -0.0907293 0)
(-1.21342 -0.0907939 -2.53318e-20)
(-1.16235 -0.0906865 0)
(-1.11102 -0.0904074 3.74603e-20)
(-1.05952 -0.0899627 4.1858e-20)
(-1.00793 -0.0893557 0)
(-0.956335 -0.0885938 0)
(-0.904826 -0.087681 -5.97067e-20)
(-0.853474 -0.0866259 -1.59989e-21)
(-0.802352 -0.0854381 -1.58436e-21)
(-0.751536 -0.0841322 0)
(-0.701099 -0.0827217 -1.66986e-19)
(-0.651106 -0.081221 0)
(-0.601614 -0.0796396 0)
(-0.552673 -0.0779902 0)
(-0.504325 -0.0762829 1.05829e-19)
(-0.456607 -0.0745331 0)
(-0.409544 -0.0727516 -2.2921e-19)
(-0.363155 -0.070954 -1.2083e-19)
(-0.317448 -0.0691511 0)
(-0.272423 -0.0673613 -1.3018e-19)
(-0.22807 -0.0655958 0)
(-0.184368 -0.0638715 0)
(-0.141285 -0.0622006 -4.27217e-19)
(-0.0987785 -0.0606033 2.92214e-19)
(-0.0567949 -0.0590894 0)
(-0.0152619 -0.0576824 3.07466e-19)
(0.0258894 -0.0563966 -1.5783e-19)
(0.0667189 -0.0552565 0)
(0.10733 -0.0542658 0)
(0.147918 -0.0533579 0)
(0.188659 -0.0525149 -4.92551e-19)
(0.229706 -0.0518965 0)
(0.271278 -0.0515628 -1.66561e-19)
(0.313511 -0.0514968 0)
(0.356704 -0.051502 0)
(0.401221 -0.0516035 0)
(0.44724 -0.0521859 0)
(0.494914 -0.0532151 0)
(0.544389 -0.0545574 0)
(0.595876 -0.0561871 -3.40184e-19)
(0.649615 -0.0580583 0)
(0.705717 -0.0601515 -1.71313e-19)
(0.764168 -0.0623044 5.147e-19)
(0.8249 -0.0642412 0)
(0.887619 -0.065612 0)
(0.952064 -0.0657806 -3.47855e-19)
(1.0159 -0.0636312 -3.51971e-19)
(1.08306 -0.0561716 3.5634e-19)
(1.13549 -0.0352614 3.66335e-19)
(-0.012084 0.000330223 -2.95427e-18)
(-0.0270786 0.0378873 -1.12674e-18)
(-0.0433399 0.0659725 -4.15307e-19)
(-0.0615048 0.0890056 -1.51814e-19)
(-0.0802828 0.108497 0)
(-0.0993577 0.124957 2.24482e-19)
(-0.11893 0.138688 -1.02948e-19)
(-0.139166 0.150002 0)
(-0.160086 0.159237 -9.07814e-20)
(-0.181637 0.166694 0)
(-0.20377 0.172616 1.64812e-19)
(-0.226484 0.177219 0)
(-0.249805 0.180727 7.59308e-20)
(-0.273759 0.183374 1.46449e-19)
(-0.298344 0.185382 -1.416e-19)
(-0.323536 0.18694 0)
(-0.349295 0.188195 -1.33302e-19)
(-0.37557 0.189257 0)
(-0.402297 0.190196 0)
(-0.429408 0.191049 -1.23525e-19)
(-0.456833 0.191823 0)
(-0.484501 0.192504 -3.94063e-23)
(-0.512346 0.193064 0)
(-0.540302 0.19346 0)
(-0.568305 0.193646 1.40164e-23)
(-0.596288 0.193573 -1.09084e-19)
(-0.624188 0.193175 -1.06637e-19)
(-0.651973 0.192377 -1.04089e-19)
(-0.679676 0.191164 0)
(-0.707379 0.189721 -1.98193e-19)
(-0.735095 0.188254 0)
(-0.762781 0.186793 -9.48629e-20)
(-0.790407 0.185368 0)
(-0.817949 0.183897 0)
(-0.845397 0.182242 8.90459e-20)
(-0.872807 0.180438 0)
(-0.90026 0.178558 -8.51418e-20)
(-0.927816 0.176697 -6.34953e-23)
(-0.955474 0.174921 1.63495e-19)
(-0.983194 0.173236 -1.6023e-19)
(-1.01096 0.171631 0)
(-1.03878 0.170095 0)
(-1.06664 0.168615 -7.56364e-20)
(-1.09453 0.167177 0)
(-1.12246 0.16577 -7.31421e-20)
(-1.15042 0.164379 7.18921e-20)
(-1.1784 0.162994 7.06861e-20)
(-1.20639 0.161602 0)
(-1.2344 0.160194 -6.83945e-20)
(-1.26241 0.158761 -6.73035e-20)
(-1.29041 0.157292 1.32316e-19)
(-1.31839 0.155779 -6.52197e-20)
(-1.34634 0.154215 -6.42228e-20)
(-1.37423 0.152592 0)
(-1.40206 0.150903 0)