# vtk DataFile Version 2.0
tracks
ASCII
DATASET POLYDATA
POINTS 12030 float
-0.0206 0.000999968 1e-05 -0.02058 0.00099997 1e-05 -0.02056 0.000999974 1e-05 -0.02054 0.000999981
1e-05 -0.02052 0.000999989 1e-05 -0.0205 0.001 1e-05 -0.0202034 0.00100016 1e-05
-0.0199069 0.00100058 1e-05 -0.0196103 0.00100124 1e-05 -0.0193137 0.00100214 1e-05 -0.0190172
0.00100329 1e-05 -0.0187132 0.00100465 1e-05 -0.0184093 0.00100605 1e-05 -0.0181054 0.00100748
1e-05 -0.0178015 0.00100894 1e-05 -0.0174976 0.00101043 1e-05 -0.0172058 0.00101188 1e-05
-0.016914 0.00101332 1e-05 -0.0166222 0.00101477 1e-05 -0.0163305 0.00101621 1e-05 -0.0160387
0.00101766 1e-05 -0.0157586 0.00101905 1e-05 -0.0154784 0.00102044 1e-05 -0.0151983 0.00102183
1e-05 -0.0149182 0.00102324 1e-05 -0.0146381 0.00102464 1e-05 -0.0145518 0.00102508 1e-05
-0.0144654 0.00102551 1e-05 -0.0143791 0.00102595 1e-05 -0.0142927 0.00102638 1e-05 -0.0142072
0.00102682 1e-05 -0.0140245 0.00102774 1e-05 -0.0138417 0.00102867 1e-05 -0.013659 0.0010296
1e-05 -0.0134762 0.00103053 1e-05 -0.0132934 0.00103146 1e-05 -0.0130353 0.00103278 1e-05
-0.0127771 0.0010341 1e-05 -0.0125189 0.00103542 1e-05 -0.0122607 0.00103674 1e-05 -0.0120025
0.00103806 1e-05 -0.0117547 0.00103933 1e-05 -0.0115068 0.0010406 1e-05 -0.0112589 0.00104186
1e-05 -0.0110111 0.00104312 1e-05 -0.0107632 0.00104438 1e-05 -0.0105252 0.00104559 1e-05
-0.0102873 0.0010468 1e-05 -0.0100493 0.001048 1e-05 -0.00981133 0.0010492 1e-05 -0.00957337
0.0010504 1e-05 -0.00934491 0.00105154 1e-05 -0.00911645 0.00105268 1e-05 -0.008888 0.00105382
1e-05 -0.00865954 0.00105496 1e-05 -0.00843108 0.00105609 1e-05 -0.00821175 0.00105718 1e-05
-0.00799242 0.00105826 1e-05 -0.00777309 0.00105933 1e-05 -0.00755376 0.00106041 1e-05 -0.00733443
0.00106148 1e-05 -0.00712387 0.0010625 1e-05 -0.0069133 0.00106352 1e-05 -0.00670273 0.00106453
1e-05 -0.00649216 0.00106554 1e-05 -0.0062816 0.00106655 1e-05 -0.00607944 0.00106751 1e-05
-0.00587729 0.00106846 1e-05 -0.00567514 0.00106941 1e-05 -0.00547298 0.00107036 1e-05 -0.00527083
0.0010713 1e-05 -0.00507675 0.0010722 1e-05 -0.00488267 0.00107309 1e-05 -0.0046886 0.00107398
1e-05 -0.00449452 0.00107486 1e-05 -0.00430044 0.00107574 1e-05 -0.00411412 0.00107658 1e-05
-0.0039278 0.00107741 1e-05 -0.00374147 0.00107823 1e-05 -0.00355515 0.00107905 1e-05 -0.00336883
0.00107986 1e-05 -0.00318995 0.00108063 1e-05 -0.00301107 0.0010814 1e-05 -0.00283219 0.00108215
1e-05 -0.00265331 0.0010829 1e-05 -0.00247443 0.00108364 1e-05 -0.0023027 0.00108434 1e-05
-0.00213097 0.00108504 1e-05 -0.00195924 0.00108572 1e-05 -0.0017875 0.00108639 1e-05 -0.00161577
0.00108705 1e-05 -0.0014509 0.00108766 1e-05 -0.00128603 0.00108827 1e-05 -0.00112116 0.00108886
1e-05 -0.000956289 0.00108944 1e-05 -0.000791418 0.00109 1e-05 -0.000633135 0.00109051 1e-05
-0.000474851 0.00109102 1e-05 -0.000316567 0.0010915 1e-05 -0.000158283 0.00109196 1e-05 0
0.00109241 1e-05 0.000105677 0.00109269 1e-05 0.000211355 0.00109296 1e-05 0.000317032 0.00109323
1e-05 0.00042271 0.00109349 1e-05 0.000528387 0.00109374 1e-05 0.000634886 0.00109398 1e-05
0.000741385 0.00109422 1e-05 0.000847885 0.00109447 1e-05 0.000954384 0.00109471 1e-05 0.00106088
0.00109496 1e-05 0.00116821 0.0010952 1e-05 0.00127554 0.00109545 1e-05 0.00138286 0.0010957
1e-05 0.00149019 0.00109595 1e-05 0.00159752 0.0010962 1e-05 0.00170568 0.00109646 1e-05
0.00181384 0.00109671 1e-05 0.001922 0.00109697 1e-05 0.00203016 0.00109722 1e-05 0.00213833
0.00109747 1e-05 0.00224733 0.00109772 1e-05 0.00235633 0.00109797 1e-05 0.00246533 0.00109821
1e-05 0.00257434 0.00109845 1e-05 0.00268334 0.00109868 1e-05 0.00279319 0.00109891 1e-05
0.00290304 0.00109914 1e-05 0.00301289 0.00109936 1e-05 0.00312274 0.00109958 1e-05 0.00323259
0.00109979 1e-05 0.00334329 0.0011 1e-05 0.003454 0.0011002 1e-05 0.0035647 0.0011004
1e-05 0.0036754 0.00110059 1e-05 0.00378611 0.00110078 1e-05 0.00389767 0.00110097 1e-05
0.00400924 0.00110115 1e-05 0.0041208 0.00110132 1e-05 0.00423237 0.00110149 1e-05 0.00434393
0.00110166 1e-05 0.00445636 0.00110181 1e-05 0.00456879 0.00110197 1e-05 0.00468123 0.00110212
1e-05 0.00479366 0.00110227 1e-05 0.00490609 0.00110241 1e-05 0.0050194 0.00110254 1e-05
0.0051327 0.00110267 1e-05 0.00524601 0.0011028 1e-05 0.00535931 0.00110292 1e-05 0.00547262
0.00110303 1e-05 0.00558681 0.00110314 1e-05 0.005701 0.00110325 1e-05 0.00581518 0.00110335
1e-05 0.00592937 0.00110345 1e-05 0.00604356 0.00110354 1e-05 0.00615863 0.00110362 1e-05
0.00627371 0.0011037 1e-05 0.00638878 0.00110378 1e-05 0.00650386 0.00110385 1e-05 0.00661893
0.00110392 1e-05 0.0066423 0.00110393 1e-05 0.00666567 0.00110394 1e-05 0.00668904 0.00110395
1e-05 0.0067124 0.00110397 1e-05 0.0067356 0.00110398 1e-05 0.00682823 0.00110402 1e-05
0.00692087 0.00110406 1e-05 0.00701351 0.0011041 1e-05 0.00710614 0.00110414 1e-05 0.00719878
0.00110417 1e-05 0.00731565 0.0011042 1e-05 0.00743252 0.00110423 1e-05 0.00754939 0.00110426
1e-05 0.00766626 0.00110428 1e-05 0.00778313 0.00110429 1e-05 0.00790091 0.0011043 1e-05
0.00801869 0.0011043 1e-05 0.00813647 0.0011043 1e-05 0.00825425 0.00110429 1e-05 0.00837203
0.00110428 1e-05 0.00849073 0.00110425 1e-05 0.00860942 0.00110423 1e-05 0.00872812 0.0011042
1e-05 0.00884682 0.00110416 1e-05 0.00896551 0.00110412 1e-05 0.00908513 0.00110406 1e-05
0.00920475 0.001104 1e-05 0.00932437 0.00110394 1e-05 0.00944398 0.00110387 1e-05 0.0095636
0.0011038 1e-05 0.00968415 0.0011037 1e-05 0.0098047 0.00110361 1e-05 0.00992525 0.00110352
1e-05 0.0100458 0.00110342 1e-05 0.0101663 0.00110331 1e-05 0.0102878 0.00110317 1e-05
0.0104093 0.00110305 1e-05 0.0105308 0.00110292 1e-05 0.0106523 0.00110279 1e-05 0.0107738
0.00110264 1e-05 0.0108962 0.00110247 1e-05 0.0110186 0.00110231 1e-05 0.0111411 0.00110215
1e-05 0.0112635 0.00110197 1e-05 0.0113859 0.00110179 1e-05 0.0115093 0.00110158 1e-05
0.0116327 0.00110138 1e-05 0.0117561 0.00110118 1e-05 0.0118795 0.00110097 1e-05 0.0120028
0.00110075 1e-05 0.0121272 0.0011005 1e-05 0.0122515 0.00110026 1e-05 0.0123759 0.00110002
1e-05 0.0125002 0.00109976 1e-05 0.0126245 0.00109951 1e-05 0.0127498 0.00109921 1e-05
0.0128752 0.00109893 1e-05 0.0130005 0.00109865 1e-05 0.0131258 0.00109835 1e-05 0.0132511
0.00109805 1e-05 0.0133774 0.00109772 1e-05 0.0135036 0.0010974 1e-05 0.0136299 0.00109707
1e-05 0.0137562 0.00109673 1e-05 0.0138825 0.00109639 1e-05 0.0140098 0.00109601 1e-05
0.014137 0.00109564 1e-05 0.0142643 0.00109527 1e-05 0.0143915 0.00109488 1e-05 0.0145188
0.00109449 1e-05 0.0146471 0.00109407 1e-05 0.0147753 0.00109366 1e-05 0.0149036 0.00109324
1e-05 0.0150318 0.00109281 1e-05 0.0151601 0.00109237 1e-05 0.0152893 0.0010919 1e-05
0.0154186 0.00109144 1e-05 0.0155478 0.00109098 1e-05 0.0156771 0.0010905 1e-05 0.0158063
0.00109002 1e-05 0.0159366 0.00108951 1e-05 0.0160668 0.001089 1e-05 0.0161971 0.00108848
1e-05 0.0163273 0.00108796 1e-05 0.0164576 0.00108742 1e-05 0.0165889 0.00108687 1e-05
0.0167201 0.00108631 1e-05 0.0168514 0.00108574 1e-05 0.0169827 0.00108517 1e-05 0.0171139
0.00108459 1e-05 0.0172462 0.00108398 1e-05 0.0173785 0.00108337 1e-05 0.0175108 0.00108276
1e-05 0.0176431 0.00108214 1e-05 0.0177754 0.0010815 1e-05 0.0179087 0.00108085 1e-05
0.018042 0.00108019 1e-05 0.0181753 0.00107952 1e-05 0.0183087 0.00107885 1e-05 0.018442
0.00107816 1e-05 0.0185763 0.00107746 1e-05 0.0187107 0.00107675 1e-05 0.018845 0.00107604
1e-05 0.0189794 0.00107531 1e-05 0.0191137 0.00107457 1e-05 0.0192491 0.00107382 1e-05
0.0193845 0.00107306 1e-05 0.0195199 0.00107229 1e-05 0.0196553 0.00107151 1e-05 0.0197907
0.00107073 1e-05 0.0199272 0.00106993 1e-05 0.0200636 0.00106912 1e-05 0.0202001 0.00106829
1e-05 0.0203365 0.00106746 1e-05 0.020473 0.00106662 1e-05 0.0206105 0.00106578 1e-05
0.020748 0.00106491 1e-05 0.0208855 0.00106404 1e-05 0.021023 0.00106315 1e-05 0.0211606
0.00106226 1e-05 0.0212991 0.00106137 1e-05 0.0214377 0.00106045 1e-05 0.0215763 0.00105952
1e-05 0.0217149 0.00105858 1e-05 0.0218535 0.00105764 1e-05 0.0219931 0.0010567 1e-05
0.0221328 0.00105574 1e-05 0.0222724 0.00105475 1e-05 0.0224121 0.00105376 1e-05 0.0225517
0.00105277 1e-05 0.0226925 0.00105177 1e-05 0.0228332 0.00105076 1e-05 0.022974 0.00104972
1e-05 0.0231147 0.00104867 1e-05 0.0232555 0.00104763 1e-05 0.0233973 0.00104659 1e-05
0.0235391 0.00104552 1e-05 0.023681 0.00104443 1e-05 0.0238228 0.00104333 1e-05 0.0239647
0.00104224 1e-05 0.0241076 0.00104114 1e-05 0.0242505 0.00104002 1e-05 0.0243935 0.00103887
1e-05 0.0245364 0.00103772 1e-05 0.0246794 0.00103658 1e-05 0.0248234 0.00103543 1e-05
0.0249675 0.00103426 1e-05 0.0251115 0.00103306 1e-05 0.0252556 0.00103185 1e-05 0.0253996
0.00103065 1e-05 0.0255448 0.00102945 1e-05 0.02569 0.00102823 1e-05 0.0258351 0.00102698
1e-05 0.0259803 0.00102572 1e-05 0.0261255 0.00102447 1e-05 0.0262718 0.00102321 1e-05
0.0264181 0.00102193 1e-05 0.0265644 0.00102063 1e-05 0.0267107 0.00101932 1e-05 0.026857
0.00101801 1e-05 0.0270044 0.00101671 1e-05 0.0271519 0.00101537 1e-05 0.0272993 0.00101401
1e-05 0.0274468 0.00101265 1e-05 0.0275942 0.00101129 1e-05 0.0277428 0.00100993 1e-05
0.0278914 0.00100853 1e-05 0.0280399 0.00100712 1e-05 0.0281885 0.00100571 1e-05 0.0283371
0.00100429 1e-05 0.0284869 0.00100287 1e-05 0.0286366 0.00100142 1e-05 0.0287863 0.000999955
1e-05 0.0289361 0.000998484 1e-05 0.0290858 0.000997008 1e-05 0.0292367 0.000995528 1e-05
0.0293876 0.00099402 1e-05 0.0295385 0.0009925 1e-05 0.0296894 0.000990972 1e-05 0.0298403
0.000989437 1e-05 0.0299924 0.000987897 1e-05 0.0301445 0.000986329 1e-05 0.0302966 0.000984752
1e-05 0.0304486 0.000983165 1e-05 0.0306007 0.000981571 1e-05 0.030754 0.000979969 1e-05
0.0309072 0.000978341 1e-05 0.0310605 0.000976705 1e-05 0.0312138 0.000975058 1e-05 0.031367
0.000973403 1e-05 0.0315215 0.000971738 1e-05 0.0316759 0.000970049 1e-05 0.0318304 0.00096835
1e-05 0.0319848 0.000966642 1e-05 0.0321393 0.000964924 1e-05 0.0322949 0.000963193 1e-05
0.0324506 0.000961441 1e-05 0.0326062 0.000959678 1e-05 0.0327619 0.000957905 1e-05 0.0329175
[...]
POINT_DATA 12030
FIELD attributes 4
age 1 12030 float
-9.99912e-06 -7.99918e-06 -5.9993e-06 -3.99947e-06 -1.99971e-06 0 2.96524e-05 5.92903e-05 8.89135e-05 0.000118522 0.000148117
0.000178431 0.000208729 0.000239016 0.000269292 0.000299557 0.000328607 0.000357652 0.000386695 0.000415736 0.000444776
0.000472656 0.000500536 0.000528418 0.000556301 0.000584185 0.00059278 0.000601375 0.00060997 0.000618566 0.000627083
0.000645278 0.000663475 0.000681673 0.000699872 0.000718072 0.000743785 0.000769501 0.00079522 0.000820941 0.000846665
0.000871364 0.000896065 0.00092077 0.000945477 0.000970188 0.000993916 0.00101764 0.00104138 0.00106511 0.00108885
0.00111165 0.00113445 0.00115725 0.00118005 0.00120286 0.00122476 0.00124666 0.00126857 0.00129048 0.00131239
0.00133344 0.00135448 0.00137553 0.00139658 0.00141764 0.00143786 0.00145808 0.0014783 0.00149853 0.00151876
0.00153819 0.00155761 0.00157704 0.00159648 0.00161591 0.00163459 0.00165325 0.00167192 0.00169059 0.00170927
0.00172721 0.00174514 0.00176308 0.00178102 0.00179896 0.0018162 0.00183343 0.00185066 0.0018679 0.00188514
0.0019017 0.00191826 0.00193481 0.00195137 0.00196794 0.00198386 0.00199976 0.00201567 0.00203158 0.0020475
0.00205814 0.00206877 0.0020794 0.00209003 0.00210067 0.0021114 0.00212213 0.00213285 0.00214358 0.00215432
0.00216514 0.00217596 0.00218678 0.00219761 0.00220843 0.00221936 0.00223027 0.00224119 0.0022521 0.00226302
0.00227404 0.00228505 0.00229606 0.00230707 0.00231808 0.00232919 0.0023403 0.0023514 0.00236251 0.00237362
0.00238483 0.00239603 0.00240723 0.00241844 0.00242965 0.00244095 0.00245225 0.00246355 0.00247486 0.00248617
0.00249757 0.00250898 0.00252038 0.00253179 0.0025432 0.00255471 0.00256622 0.00257773 0.00258924 0.00260076
0.00261238 0.00262399 0.00263561 0.00264723 0.00265886 0.00267058 0.00268231 0.00269404 0.00270578 0.00271752
0.0027199 0.00272229 0.00272467 0.00272706 0.00272943 0.00273888 0.00274835 0.00275781 0.00276728 0.00277675
0.00278871 0.00280067 0.00281264 0.00282461 0.00283659 0.00284868 0.00286076 0.00287285 0.00288494 0.00289705
0.00290927 0.00292148 0.0029337 0.00294593 0.00295816 0.00297053 0.00298287 0.00299522 0.00300758 0.00301995
0.00303246 0.00304494 0.00305743 0.00306993 0.00308244 0.0030951 0.00310773 0.00312036 0.003133 0.00314566
0.00315847 0.00317125 0.00318403 0.00319682 0.00320963 0.0032226 0.00323553 0.00324847 0.00326142 0.00327437
0.00328752 0.0033006 0.0033137 0.00332681 0.00333992 0.00335324 0.00336649 0.00337975 0.00339302 0.00340631
0.00341979 0.00343321 0.00344664 0.00346008 0.00347354 0.00348721 0.00350081 0.00351441 0.00352803 0.00354168
0.00355552 0.00356931 0.0035831 0.0035969 0.00361073 0.00362476 0.00363874 0.00365271 0.0036667 0.00368072
0.00369494 0.00370912 0.00372328 0.00373745 0.00375167 0.00376609 0.00378046 0.00379481 0.00380918 0.00382361
0.00383822 0.00385279 0.00386734 0.00388191 0.00389654 0.00391135 0.00392613 0.00394088 0.00395565 0.00397048
0.0039855 0.00400049 0.00401545 0.00403042 0.00404546 0.00406069 0.00407589 0.00409106 0.00410624 0.00412149
0.00413693 0.00415234 0.00416773 0.00418313 0.0041986 0.00421425 0.00422988 0.00424548 0.00426111 0.00427679
0.00429265 0.0043085 0.00432433 0.00434017 0.00435608 0.00437216 0.00438822 0.00440428 0.00442035 0.00443647
0.00445277 0.00446906 0.00448534 0.00450164 0.00451798 0.00453451 0.00455102 0.00456753 0.00458405 0.00460063
0.00461738 0.00463412 0.00465085 0.00466761 0.00468441 0.00470138 0.00471835 0.00473532 0.00475231 0.00476933
0.00478654 0.00480374 0.00482094 0.00483816 0.00485542 0.00487286 0.00489029 0.00490773 0.00492519 0.00494268
0.00496034 0.00497801 0.00499569 0.00501338 0.00503111 0.00504901 0.00506691 0.00508483 0.00510276 0.00512072
0.00513885 0.00515699 0.00517515 0.00519332 0.00521151 0.00522989 0.00524826 0.00526666 0.00528507 0.0053035
0.00532211 0.00534073 0.00535937 0.00537802 0.00539669 0.00541554 0.0054344 0.00545328 0.00547218 0.00549109
0.00551018 0.00552929 0.00554841 0.00556755 0.00558671 0.00560604 0.00562539 0.00564476 0.00566414 0.00568355
0.00570312 0.00572272 0.00574233 0.00576196 0.00578161 0.00580144 0.00582128 0.00584114 0.00586101 0.00588091
0.00589291 0.00590491 0.00591691 0.00592893 0.00594066 0.00594882 0.00595698 0.00596514 0.00597331 0.00598148
0.0060018 0.00602214 0.0060425 0.00606288 0.00608328 0.00610385 0.00612445 0.00614506 0.0061657 0.00618635
0.00620718 0.00622803 0.0062489 0.00626979 0.0062907 0.00631179 0.00633289 0.00635402 0.00637517 0.00639634
0.00641768 0.00643905 0.00646043 0.00648184 0.00650327 0.00652487 0.0065465 0.00656815 0.00658982 0.00661151
0.00663337 0.00665526 0.00667717 0.00669911 0.00672106 0.00674319 0.00676534 0.00678752 0.00680972 0.00683193
0.00685433 0.00687675 0.00689919 0.00692166 0.00694414 0.0069668 0.00698949 0.00701221 0.00703495 0.0070577
0.00708063 0.00710359 0.00712658 0.00714959 0.00717261 0.00719582 0.00721906 0.00724232 0.00726561 0.0072889
0.00731239 0.0073359 0.00735944 0.007383 0.00740658 0.00743034 0.00745414 0.00747796 0.0075018 0.00752565
0.0075497 0.00757378 0.00759789 0.00762201 0.00764615 0.00767049 0.00769485 0.00771925 0.00774366 0.00776808
0.00779271 0.00781737 0.00784205 0.00786675 0.00789147 0.00791639 0.00794134 0.00796632 0.00799131 0.00801632
0.00804154 0.00806679 0.00809206 0.00811736 0.00814267 0.00816819 0.00819375 0.00821932 0.00824491 0.00827053
0.00829636 0.00832222 0.0083481 0.008374 0.00839993 0.00842607 0.00845224 0.00847843 0.00850465 0.00853088
0.00855735 0.00858383 0.00861034 0.00863687 0.00866343 0.0086759 0.00868837 0.00870085 0.00871334 0.00872545
0.00873987 0.0087543 0.00876873 0.00878317 0.00879762 0.00882473 0.00885187 0.00887903 0.00890622 0.00893344
0.00896088 0.00898835 0.00901586 0.00904338 0.00907094 0.00909872 0.00912654 0.00915439 0.00918226 0.00921016
0.00923829 0.00926646 0.00929466 0.00932288 0.00935114 0.00937962 0.00940814 0.0094367 0.00946529 0.0094939
0.00952274 0.00955162 0.00958055 0.0096095 0.00963848 0.00966769 0.00969695 0.00972624 0.00975558 0.00978492
0.00981451 0.00984415 0.00987383 0.00990354 0.00993327 0.00996324 0.00999327 0.0100233 0.0100534 0.0100836
0.0101139 0.0101443 0.0101748 0.0102053 0.0102358 0.0102666 0.0102974 0.0103283 0.0103592 0.0103901
0.0104213 0.0104526 0.0104839 0.0105152 0.0105465 0.0105781 0.0106098 0.0106415 0.0106733 0.010705
0.0107371 0.0107692 0.0108013 0.0108335 0.0108657 0.0108721 0.0108784 0.0108848 0.0108911 0.0108974
0.0109236 0.0109498 0.0109761 0.0110024 0.0110287 0.0110617 0.0110947 0.0111278 0.0111609 0.0111941
0.0112275 0.011261 0.0112946 0.0113282 0.0113618 0.0113958 0.0114298 0.0114639 0.011498 0.0115321
0.0115666 0.0116011 0.0116357 0.0116703 0.011705 0.0117399 0.011775 0.0118101 0.0118453 0.0118805
0.011916 0.0119516 0.0119873 0.012023 0.0120587 0.0120948 0.012131 0.0121672 0.0122035 0.0122398
0.0122765 0.0123132 0.01235 0.0123869 0.0124238 0.0124586 0.0124935 0.0125284 0.0125634 0.0125962
0.0125991 0.0126021 0.012605 0.0126079 0.0126108 0.0126487 0.0126867 0.0127247 0.0127627 0.0128009
0.0128394 0.012878 0.0129166 0.0129553 0.0129941 0.0130333 0.0130725 0.0131118 0.0131511 0.0131906
0.0132304 0.0132703 0.0133103 0.0133503 0.0133904 0.013431 0.0134716 0.0135122 0.013553 0.0135938
0.013635 0.0136763 0.0137177 0.0137592 0.0138008 0.0138428 0.0138848 0.013927 0.0139692 0.0140115
0.014043 0.0140746 0.0141062 0.0141378 0.0141681 0.0141797 0.0141913 0.014203 0.0142146 0.0142263
0.0142699 0.0143135 0.0143572 0.014401 0.014445 0.0144894 0.0145338 0.0145784 0.014623 0.0146678
0.014713 0.0147583 0.0148038 0.0148493 0.0148949 0.014941 0.0149872 0.0150336 0.01508 0.0151265
0.0151736 0.0152207 0.0152679 0.0153153 0.0153628 0.0154108 0.0154589 0.0155071 0.0155555 0.015604
0.0156202 0.0156366 0.0156529 0.0156692 0.0156852 0.0157181 0.0157511 0.0157841 0.0158172 0.0158503
0.0159003 0.0159504 0.0160007 0.0160511 0.0161017 0.0161527 0.0162039 0.0162553 0.0163068 0.0163584
0.0164106 0.016463 0.0165154 0.0165681 0.0166209 0.0166742 0.0167277 0.0167814 0.0168352 0.0168892
0.0169437 0.0169984 0.0170533 0.0171084 0.0171636 0.017169 0.0171744 0.0171798 0.0171852 0.0171906
0.0172411 0.0172918 0.0173426 0.0173935 0.0174446 0.0175017 0.017559 0.0176165 0.0176742 0.0177321
0.0177906 0.0178492 0.0179081 0.0179672 0.0180264 0.0180864 0.0181465 0.0182068 0.0182673 0.0183281
0.0183895 0.0184511 0.0185129 0.018575 0.0186373 0.0186526 0.0186679 0.0186833 0.0186986 0.0187138
0.0187617 0.0188097 0.0188579 0.0189062 0.0189546 0.0190192 0.0190841 0.0191491 0.0192144 0.01928
0.0193463 0.0194128 0.0194796 0.0195466 0.0196139 0.019682 0.0197503 0.0198189 0.0198877 0.0199569
0.0200213 0.0200861 0.020151 0.0202162 0.0202786 0.0202848 0.0202909 0.0202971 0.0203032 0.0203094
0.0203813 0.0204535 0.0205259 0.0205986 0.0206717 0.0207456 0.0208198 0.0208943 0.0209691 0.0210443
0.0211203 0.0211966 0.0212733 0.0213502 0.0214276 0.0215058 0.0215844 0.0216634 0.0217426 0.0218223
0.0218391 0.0218559 0.0218727 0.0218895 0.0219061 0.0219703 0.0220347 0.0220993 0.0221641 0.0222292
0.0223123 0.0223957 0.0224794 0.0225636 0.0226482 0.0227338 0.0228197 0.0229061 0.0229929 0.0230801
0.0231684 0.0232571 0.0233462 0.0234357 0.0235257 0.0235438 0.0235619 0.02358 0.0235981 0.0236161
0.0236895 0.0237632 0.0238372 0.0239115 0.0239861 0.0240801 0.0241746 0.0242695 0.0243649 0.0244609
0.0245579 0.0246555 0.0247536 0.0248521 0.0249513 0.0250465 0.0251423 0.0252384 0.0253351 0.0254287
0.0254346 0.0254405 0.0254465 0.0254524 0.0254583 0.025562 0.0256663 0.0257711 0.0258764 0.0259823
0.0260895 0.0261973 0.0263057 0.0264145 0.0265241 0.026635 0.0267465 0.0268586 0.0269712 0.0270846
0.0271406 0.0271969 0.0272532 0.0273098 0.0273655 0.0274252 0.027485 0.027545 0.0276051 0.0276654
0.0277841 0.0279035 0.0280235 0.0281442 0.0282656 0.0283885 0.028512 0.0286362 0.0287611 0.0288867
0.0289988 0.0291114 0.0292246 0.0293382 0.0294501 0.0294661 0.0294821 0.0294981 0.0295142 0.0295302
0.0296619 0.0297943 0.0299275 0.0300613 0.0301959 0.0303321 0.030469 0.0306068 0.0307452 0.0308844
0.0310253 0.031167 0.0313094 0.0314526 0.0315966 0.0316189 0.0316412 0.0316635 0.0316858 0.0317082
0.0318321 0.0319567 0.0320818 0.0322074 0.0323337 0.0324843 0.0326359 0.0327882 0.0329414 0.0330953
0.033251 0.0334076 0.0335651 0.0337233 0.0338823 0.0339173 0.0339523 0.0339874 0.0340225 0.0340576
0.0341843 0.0343114 0.034439 0.034567 0.0346956 0.0348616 0.0350285 0.0351962 0.0353647 0.0355338
0.035705 0.035877 0.0360498 0.0362234 0.0363976 0.0364333 0.036469 0.0365048 0.0365406 0.0365765
0.0367177 0.0368594 0.0370016 0.0371443 0.0372873 0.0374685 0.0376506 0.0378335 0.0380171 0.0382011
0.0383873 0.0385742 0.0387619 0.0389502 0.039139 0.0391726 0.0392063 0.0392399 0.0392737 0.0393076
0.0394653 0.0396235 0.0397821 0.0399411 0.0401004 0.0402958 0.0404918 0.0406885 0.0408858 0.0410833
0.0412829 0.0414831 0.0416839 0.0418852 0.0420867 0.04213 0.0421733 0.0422167 0.0422601 0.0423039
0.0424645 0.0426254 0.0427866 0.042948 0.0431095 0.0433166 0.0435242 0.0437323 0.0439407 0.0441491
0.0443594 0.0445702 0.0447813 0.0449927 0.0452039 0.0452896 0.0453754 0.0454612 0.045547 0.0456351
0.0457625 0.0458899 0.0460174 0.0461449 0.0462723 0.046488 0.0467038 0.0469198 0.047136 0.0473518
0.0475693 0.0477871 0.048005 0.0482228 0.0484403 0.04863 0.0488199 0.0490096 0.0491994 0.0494039
0.0494303 0.0494566 0.049483 0.0495094 0.0495357 0.0497561 0.0499765 0.0501966 0.0504167 0.0506362
0.0508573 0.0510782 0.051299 0.0515196 0.0517395 0.0519609 0.0521821 0.0524031 0.0526238 0.0528437
0.0530397 0.0532356 0.0534311 0.0536263 0.0538484 0.053868 0.0538877 0.0539073 0.0539269 0.0539466
0.0541676 0.0543881 0.0546082 0.0548278 0.0550464 0.0552664 0.0554858 0.0557047 0.055923 0.0561404
0.056359 0.0565772 0.0567949 0.0570118 0.0572272 0.0574349 0.0576421 0.0578486 0.0580543 0.0582588
0.0583216 0.0583843 0.058447 0.0585095 0.0585753 0.0587223 0.0588687 0.0590147 0.0591601 0.0593049
0.059519 0.059732 0.0599439 0.0601547 0.0603639 0.0605801 0.060795 0.0610086 0.0612208 0.0614315
0.0615861 0.0617399 0.061893 0.0620454 0.0622196 0.0622764 0.0623331 0.0623896 0.0624461 0.0625025
0.0627206 0.062937 0.0631519 0.0633651 0.0635767 0.0637948 0.0640112 0.0642259 0.0644388 0.06465
0.0648676 0.0650834 0.0652974 0.0655096 0.06572 0.0658862 0.0660514 0.0662154 0.0663783 0.0665704
0.0666131 0.0666556 0.0666981 0.0667405 0.0667828 0.0669982 0.0672115 0.0674229 0.0676324 0.06784
0.0680537 0.0682654 0.068475 0.0686827 0.0688886 0.0691003 0.0693101 0.0695177 0.0697234 0.0699272
0.0701369 0.0703444 0.0705499 0.0707534 0.070955 0.0711623 0.0713675 0.0715707 0.0717718 0.0719711
0.0719842 0.0719973 0.0720103 0.0720234 0.0720367 0.0722278 0.0724171 0.0726045 0.0727902 0.0729742
0.0731766 0.0733768 0.073575 0.0737712 0.0739654 0.0741652 0.0743629 0.0745585 0.074752 0.0749437
0.0751409 0.0753359 0.0755289 0.0757199 0.075909 0.0761034 0.0762958 0.076486 0.0766743 0.0768608
0.0770525 0.0772422 0.0774299 0.0776156 0.0777994 0.0779883 0.078175 0.0783598 0.0785427 0.0787238
0.07891 0.0790943 0.0792764 0.0794565 0.0796345 0.0797053 0.0797758 0.0798461 0.079916 0.0799977
0.0801051 0.0802119 0.0803181 0.0804235 0.0805284 0.0807093 0.080888 0.0810641 0.0812379 0.0814094
0.0815844 0.0817559 0.0819255 0.0820931 0.0822591 -9.99984e-06 -7.99985e-06 -5.99987e-06 -3.99991e-06 -1.99995e-06
0 2.9656e-05 5.93096e-05 8.89604e-05 0.000118608 0.000148252 0.000178625 0.000208993 0.000239357 0.000269714
0.000300066 0.000329198 0.000358323 0.000387442 0.000416556 0.000445664 0.000473603 0.000501537 0.000529466 0.00055739
0.000585309 0.000612108 0.000638903 0.000665694 0.000692481 0.000719263 0.000744971 0.000770675 0.000796376 0.000822072
0.000847765 0.000872427 0.000897086 0.000921742 0.000946393 0.000971042 0.000994702 0.00101836 0.00104201 0.00106566
0.00108931 0.00111201 0.00113471 0.0011574 0.0011801 0.00120278 0.00122456 0.00124634 0.00126812 0.00128989
0.00131166 0.00133255 0.00135345 0.00137434 0.00139523 0.00141612 0.00143617 0.00145622 0.00147627 0.00149631
0.00151636 0.0015356 0.00155484 0.00157407 0.00159331 0.00161254 0.001631 0.00164946 0.00166792 0.00168638
0.00170484 0.00172255 0.00174027 0.00175798 0.0017757 0.00179341 0.00181041 0.00182741 0.00184441 0.00186141
0.0018784 0.00189472 0.00191103 0.00192735 0.00194366 0.00195997 0.00197563 0.00199129 0.00200695 0.0020226
0.00203826 0.00204871 0.00205916 0.00206962 0.00208007 0.00209052 0.00210105 0.00211158 0.00212211 0.00213264
0.00214317 0.00215378 0.00216439 0.002175 0.00218562 0.00219623 0.00220692 0.00221761 0.0022283 0.00223899
0.00224968 0.00226046 0.00227123 0.00228201 0.00229278 0.00230355 0.00231441 0.00232526 0.00233612 0.00234697
0.00235783 0.00236877 0.00237971 0.00239065 0.00240158 0.00241252 0.00242354 0.00243457 0.00244559 0.00245661
0.00246763 0.00247874 0.00248984 0.00250095 0.00251206 0.00252316 0.00253435 0.00254554 0.00255674 0.00256793
0.00257912 0.0025904 0.00260167 0.00261295 0.00262423 0.0026355 0.00264687 0.00265823 0.00266959 0.00268096
0.00269232 0.00270377 0.00271522 0.00272667 0.00273812 0.00274957 0.00276111 0.00277265 0.00278419 0.00279573
0.00280727 0.0028189 0.00283053 0.00284215 0.00285378 0.00286541 0.00287713 0.00288884 0.00290056 0.00291228
0.002924 0.0029358 0.00294761 0.00295942 0.00297123 0.00298303 0.00299493 0.00300683 0.00301873 0.00303063
0.00304253 0.00305452 0.00306651 0.0030785 0.00309049 0.00310248 0.00311456 0.00312665 0.00313873 0.00315081
0.0031629 0.00317507 0.00318725 0.00319943 0.0032116 0.00322378 0.00323605 0.00324832 0.00326059 0.00327286
0.00328513 0.0032975 0.00330986 0.00332223 0.00333459 0.00334696 0.00335942 0.00337188 0.00338434 0.0033968
0.00340926 0.00342182 0.00343437 0.00344693 0.00345949 0.00347204 0.0034847 0.00349735 0.00351 0.00352266
0.00353531 0.00354806 0.00356081 0.00357356 0.00358632 0.00359907 0.00361192 0.00362477 0.00363762 0.00365046
0.00366331 0.00367542 0.00368753 0.00369963 0.00371174 0.00372379 0.00372464 0.0037255 0.00372635 0.0037272
0.00372806 0.00374111 0.00375416 0.0037672 0.00378025 0.0037933 0.00380645 0.0038196 0.00383275 0.0038459
0.00385905 0.0038723 0.00388555 0.0038988 0.00391205 0.0039253 0.00393865 0.00395201 0.00396536 0.00397871
0.00399206 0.00400552 0.00401898 0.00403243 0.00404589 0.00405934 0.0040729 0.00408646 0.00410002 0.00411358
0.00412714 0.0041408 0.00415447 0.00416813 0.00418179 0.00419546 0.00420923 0.004223 0.00423677 0.00425054
0.0042643 0.00427818 0.00429206 0.00430593 0.00431981 0.00433368 0.00434766 0.00436165 0.00437563 0.00438961
0.00440359 0.00441768 0.00443177 0.00444586 0.00445995 0.00447404 0.00448824 0.00450244 0.00451664 0.00453084
0.00454504 0.00455935 0.00457366 0.00458796 0.00460227 0.00461658 0.004631 0.00464542 0.00465984 0.00467425
0.00468867 0.00470321 0.00471774 0.00473227 0.00474679 0.00476132 0.00477597 0.00479061 0.00480525 0.0048199
0.00483454 0.0048493 0.00486405 0.00487881 0.00489356 0.00490832 0.00492319 0.00493806 0.00495293 0.0049678
0.00498267 0.00499766 0.00501264 0.00502763 0.00504261 0.0050576 0.0050727 0.0050878 0.0051029 0.005118
0.00513311 0.00514833 0.00516355 0.00517877 0.00519398 0.0052092 0.00522455 0.00523988 0.00525522 0.00527056
0.0052859 0.00530136 0.00531681 0.00533227 0.00534773 0.00536319 0.00537877 0.00539434 0.00540992 0.0054255
0.00544108 0.00545678 0.00547248 0.00548818 0.00550389 0.00551959 0.00553541 0.00555124 0.00556706 0.00558289
0.00559871 0.00561466 0.00563061 0.00564656 0.00566251 0.00567846 0.00569454 0.00571061 0.00572669 0.00574277
0.00575884 0.00577505 0.00579125 0.00580746 0.00582366 0.00583975 0.00583977 0.00583979 0.00583982 0.00583984
0.00583987 0.0058562 0.00587253 0.00588886 0.0059052 0.00592153 0.005938 0.00595446 0.00597093 0.00598739
0.00600386 0.00602046 0.00603705 0.00605365 0.00607025 0.00608685 0.00610359 0.00612032 0.00613705 0.00615378
0.00617051 0.00618739 0.00620426 0.00622112 0.00623799 0.00625486 0.00627188 0.00628888 0.00630589 0.0063229
0.00633991 0.00635707 0.00637422 0.00639136 0.00640851 0.00642566 0.00644297 0.00646026 0.00647755 0.00649484
0.00651214 0.0065296 0.00654704 0.00656447 0.0065819 0.00659935 0.00661696 0.00663455 0.00665212 0.0066697
0.0066873 0.00670506 0.00672281 0.00674053 0.00675826 0.00677602 0.00679394 0.00681184 0.00682972 0.0068476
0.00686551 0.00688359 0.00690165 0.00691969 0.00693773 0.0069558 0.00697404 0.00699226 0.00701046 0.00702867
0.0070469 0.00706531 0.00708369 0.00710205 0.00712043 0.00713883 0.0071574 0.00717595 0.00719449 0.00721303
0.0072316 0.00725034 0.00726906 0.00728778 0.0073065 0.00732524 0.00734416 0.00736305 0.00738194 0.00740085
0.00741976 0.00743885 0.00745793 0.00747701 0.00749609 0.00751519 0.00753446 0.00755372 0.00757299 0.00759226
0.00761155 0.00763101 0.00765046 0.00766991 0.00768938 0.00770886 0.00772776 0.00774667 0.00776558 0.0077845
0.0078027 0.00780358 0.00780447 0.00780536 0.00780625 0.00780714 0.00782698 0.00784682 0.00786668 0.00788654
0.00790642 0.00792647 0.00794652 0.00796658 0.00798665 0.00800673 0.008027 0.00804726 0.00806753 0.00808781
0.0081081 0.0081286 0.00814907 0.00816955 0.00819004 0.00821055 0.00823128 0.00825198 0.00827268 0.00829339
0.00831413 0.00833509 0.00835602 0.00837694 0.00839788 0.00841886 0.00844005 0.00846123 0.00848238 0.00850354
0.00852476 0.0085462 0.00856761 0.008589 0.00861041 0.00863187 0.00865356 0.00867523 0.00869687 0.00871852
0.00874024 0.00876218 0.0087841 0.00880599 0.0088279 0.00884987 0.00887207 0.00889425 0.00891641 0.0089386
0.00896083 0.00898329 0.00900573 0.00902818 0.00905064 0.00907314 0.00909587 0.00911858 0.00914131 0.00916406
0.00918684 0.00920984 0.00923284 0.00925586 0.0092789 0.00930196 0.00932525 0.00934854 0.00937185 0.00939519
0.00941856 0.00941951 0.00942046 0.00942141 0.00942237 0.00942332 0.00944594 0.00946858 0.00949125 0.00951394
0.00953665 0.00956054 0.00958444 0.00960837 0.00963233 0.00965631 0.00968052 0.00970474 0.00972899 0.00975326
0.00977756 0.00980211 0.00982666 0.00985123 0.00987582 0.00990046 0.00992535 0.00995024 0.00997514 0.0100001
0.010025 0.0100503 0.0100755 0.0101008 0.010126 0.0101514 0.010177 0.0102026 0.0102282 0.0102538