/*
面文件
openfoam 规定内部面在前，边界面在后
此文件将内部面放在了前面，和视频对比
视频中的1-12号面为这里的13-24号面 
(视频中的13-24号面为这里的1-12号面)
*/

FoamFile
{
    
}
/* ------------------- */


24
(
2(2 6)
2(3 7)
2(6 10)
2(7 11)
2(10 14)
2(11 15)
2(5 6)
2(6 7)
2(7 8)
2(9 10)
2(10 11)
2(11 12 )
2(1 2)
2(2 3)
2(3 4)
2(4 8)
2(8 12)
2(12 16)
2(15 16)
2(14 15)
2(13 14)
2(9 13)
2(5 9)
2(1 5)
)
