/*
neighbour 文件
*/


FoamFile
{

}


12
(
4
3
5
1
7
8
5
3
2
6
7
8
)
