/*
owner文件
*/

FoamFile
{
    
}

24
(
3
2
0
0
6
7
4
0
1
5
0
1
4
3
2
2
1
8
8
7
6
6
5
4
)