# vtk DataFile Version 2.0
tracks
ASCII
DATASET POLYDATA
POINTS 12065 float
-0.0206 0.000999968 1e-05 -0.02058 0.00099997 1e-05 -0.02056 0.000999974 1e-05 -0.02054 0.000999981
1e-05 -0.02052 0.000999989 1e-05 -0.0205 0.001 1e-05 -0.0202034 0.00100016 1e-05
-0.0199069 0.00100058 1e-05 -0.0196103 0.00100124 1e-05 -0.0193137 0.00100214 1e-05 -0.0190172
0.00100329 1e-05 -0.0187132 0.00100465 1e-05 -0.0184093 0.00100605 1e-05 -0.0181054 0.00100748
1e-05 -0.0178015 0.00100894 1e-05 -0.0174976 0.00101042 1e-05 -0.0172058 0.00101188 1e-05
-0.016914 0.00101332 1e-05 -0.0166222 0.00101476 1e-05 -0.0163305 0.00101621 1e-05 -0.0160387
0.00101765 1e-05 -0.0157586 0.00101904 1e-05 -0.0154784 0.00102043 1e-05 -0.0151983 0.00102183
1e-05 -0.0149182 0.00102323 1e-05 -0.0146381 0.00102464 1e-05 -0.0145514 0.00102507 1e-05
-0.0144648 0.00102551 1e-05 -0.0143781 0.00102595 1e-05 -0.0142915 0.00102638 1e-05 -0.0142056
0.00102682 1e-05 -0.0140232 0.00102774 1e-05 -0.0138408 0.00102866 1e-05 -0.0136583 0.00102959
1e-05 -0.0134759 0.00103052 1e-05 -0.0132934 0.00103145 1e-05 -0.0130353 0.00103277 1e-05
-0.0127771 0.00103409 1e-05 -0.0125189 0.00103541 1e-05 -0.0122607 0.00103673 1e-05 -0.0120025
0.00103805 1e-05 -0.0117547 0.00103932 1e-05 -0.0115068 0.00104058 1e-05 -0.0112589 0.00104185
1e-05 -0.0110111 0.00104311 1e-05 -0.0107632 0.00104437 1e-05 -0.0105252 0.00104557 1e-05
-0.0102873 0.00104678 1e-05 -0.0100493 0.00104798 1e-05 -0.00981133 0.00104918 1e-05 -0.00957337
0.00105038 1e-05 -0.00934491 0.00105152 1e-05 -0.00911645 0.00105266 1e-05 -0.008888 0.0010538
1e-05 -0.00865954 0.00105494 1e-05 -0.00843108 0.00105607 1e-05 -0.00821175 0.00105715 1e-05
-0.00799242 0.00105823 1e-05 -0.00777309 0.00105931 1e-05 -0.00755376 0.00106038 1e-05 -0.00733443
0.00106145 1e-05 -0.00712387 0.00106248 1e-05 -0.0069133 0.00106349 1e-05 -0.00670273 0.00106451
1e-05 -0.00649216 0.00106552 1e-05 -0.0062816 0.00106653 1e-05 -0.00607944 0.00106749 1e-05
-0.00587729 0.00106844 1e-05 -0.00567514 0.0010694 1e-05 -0.00547298 0.00107035 1e-05 -0.00527083
0.00107129 1e-05 -0.00507675 0.00107219 1e-05 -0.00488267 0.00107308 1e-05 -0.0046886 0.00107398
1e-05 -0.00449452 0.00107486 1e-05 -0.00430044 0.00107574 1e-05 -0.00411412 0.00107658 1e-05
-0.0039278 0.00107742 1e-05 -0.00374147 0.00107825 1e-05 -0.00355515 0.00107907 1e-05 -0.00336883
0.00107989 1e-05 -0.00318995 0.00108067 1e-05 -0.00301107 0.00108144 1e-05 -0.00283219 0.00108221
1e-05 -0.00265331 0.00108297 1e-05 -0.00247443 0.00108372 1e-05 -0.0023027 0.00108444 1e-05
-0.00213097 0.00108515 1e-05 -0.00195924 0.00108585 1e-05 -0.0017875 0.00108654 1e-05 -0.00161577
0.00108723 1e-05 -0.0014509 0.00108787 1e-05 -0.00128603 0.0010885 1e-05 -0.00112116 0.00108913
1e-05 -0.000956289 0.00108974 1e-05 -0.000791418 0.00109035 1e-05 -0.000633135 0.00109091 1e-05
-0.000474851 0.00109147 1e-05 -0.000316567 0.00109201 1e-05 -0.000158283 0.00109254 1e-05 0
0.00109305 1e-05 0.000105677 0.00109337 1e-05 0.000211355 0.0010937 1e-05 0.000317032 0.00109401
1e-05 0.00042271 0.00109432 1e-05 0.000528387 0.00109462 1e-05 0.000634886 0.00109491 1e-05
0.000741385 0.0010952 1e-05 0.000847885 0.00109549 1e-05 0.000954384 0.00109578 1e-05 0.00106088
0.00109607 1e-05 0.00116821 0.00109636 1e-05 0.00127554 0.00109665 1e-05 0.00138286 0.00109694
1e-05 0.00149019 0.00109723 1e-05 0.00159752 0.00109751 1e-05 0.00170568 0.0010978 1e-05
0.00181384 0.00109808 1e-05 0.001922 0.00109835 1e-05 0.00203016 0.00109862 1e-05 0.00213833
0.00109888 1e-05 0.00224733 0.00109914 1e-05 0.00235633 0.00109939 1e-05 0.00246533 0.00109963
1e-05 0.00257434 0.00109987 1e-05 0.00268334 0.00110009 1e-05 0.00279319 0.00110031 1e-05
0.00290304 0.00110053 1e-05 0.00301289 0.00110074 1e-05 0.00312274 0.00110094 1e-05 0.00323259
0.00110113 1e-05 0.00334329 0.00110132 1e-05 0.003454 0.0011015 1e-05 0.0035647 0.00110168
1e-05 0.0036754 0.00110186 1e-05 0.00378611 0.00110203 1e-05 0.00389767 0.00110219 1e-05
0.00400924 0.00110234 1e-05 0.0041208 0.0011025 1e-05 0.00423237 0.00110265 1e-05 0.00434393
0.00110279 1e-05 0.00445636 0.00110292 1e-05 0.00456879 0.00110306 1e-05 0.00468123 0.00110319
1e-05 0.00479366 0.00110331 1e-05 0.00490609 0.00110343 1e-05 0.0050194 0.00110354 1e-05
0.0051327 0.00110365 1e-05 0.00524601 0.00110376 1e-05 0.00535931 0.00110386 1e-05 0.00547262
0.00110395 1e-05 0.00558681 0.00110405 1e-05 0.005701 0.00110413 1e-05 0.00581518 0.00110422
1e-05 0.00592937 0.0011043 1e-05 0.00604356 0.00110437 1e-05 0.00615863 0.00110444 1e-05
0.00627371 0.00110451 1e-05 0.00638878 0.00110457 1e-05 0.00650386 0.00110462 1e-05 0.00661893
0.00110468 1e-05 0.00665578 0.00110469 1e-05 0.00669263 0.00110471 1e-05 0.00672948 0.00110472
1e-05 0.00676633 0.00110473 1e-05 0.00680278 0.00110475 1e-05 0.00688198 0.00110477 1e-05
0.00696118 0.0011048 1e-05 0.00704038 0.00110482 1e-05 0.00711958 0.00110484 1e-05 0.00719878
0.00110486 1e-05 0.00731565 0.00110488 1e-05 0.00743252 0.0011049 1e-05 0.00754939 0.00110492
1e-05 0.00766626 0.00110493 1e-05 0.00778313 0.00110493 1e-05 0.00790091 0.00110492 1e-05
0.00801869 0.00110491 1e-05 0.00813647 0.0011049 1e-05 0.00825425 0.00110488 1e-05 0.00837203
0.00110486 1e-05 0.00849073 0.00110481 1e-05 0.00860942 0.00110478 1e-05 0.00872812 0.00110473
1e-05 0.00884682 0.00110468 1e-05 0.00896551 0.00110462 1e-05 0.00908513 0.00110454 1e-05
0.00920475 0.00110447 1e-05 0.00932437 0.00110439 1e-05 0.00944398 0.00110431 1e-05 0.0095636
0.00110421 1e-05 0.00968415 0.00110409 1e-05 0.0098047 0.00110398 1e-05 0.00992525 0.00110387
1e-05 0.0100458 0.00110374 1e-05 0.0101663 0.00110361 1e-05 0.0102878 0.00110345 1e-05
0.0104093 0.0011033 1e-05 0.0105308 0.00110314 1e-05 0.0106523 0.00110297 1e-05 0.0107738
0.0011028 1e-05 0.0108962 0.00110259 1e-05 0.0110186 0.0011024 1e-05 0.0111411 0.00110219
1e-05 0.0112635 0.00110198 1e-05 0.0113859 0.00110176 1e-05 0.0115093 0.0011015 1e-05
0.0116327 0.00110126 1e-05 0.0117561 0.00110101 1e-05 0.0118795 0.00110074 1e-05 0.0120028
0.00110047 1e-05 0.0121272 0.00110016 1e-05 0.0122515 0.00109987 1e-05 0.0123759 0.00109956
1e-05 0.0125002 0.00109925 1e-05 0.0126245 0.00109892 1e-05 0.0127498 0.00109856 1e-05
0.0128752 0.00109821 1e-05 0.0130005 0.00109785 1e-05 0.0131258 0.00109748 1e-05 0.0132511
0.00109709 1e-05 0.0133774 0.00109667 1e-05 0.0135036 0.00109626 1e-05 0.0136299 0.00109584
1e-05 0.0137562 0.00109541 1e-05 0.0138825 0.00109496 1e-05 0.0140098 0.00109448 1e-05
0.014137 0.001094 1e-05 0.0142643 0.00109352 1e-05 0.0143915 0.00109302 1e-05 0.0145188
0.0010925 1e-05 0.0146471 0.00109196 1e-05 0.0147753 0.00109141 1e-05 0.0149036 0.00109086
1e-05 0.0150318 0.00109029 1e-05 0.0151601 0.00108971 1e-05 0.0152893 0.00108909 1e-05
0.0154186 0.00108848 1e-05 0.0155478 0.00108785 1e-05 0.0156771 0.0010872 1e-05 0.0158063
0.00108655 1e-05 0.0159366 0.00108586 1e-05 0.0160668 0.00108517 1e-05 0.0161971 0.00108446
1e-05 0.0163273 0.00108374 1e-05 0.0164576 0.001083 1e-05 0.0165889 0.00108224 1e-05
0.0167201 0.00108146 1e-05 0.0168514 0.00108068 1e-05 0.0169827 0.00107987 1e-05 0.0171139
0.00107905 1e-05 0.0172462 0.00107821 1e-05 0.0173785 0.00107735 1e-05 0.0175108 0.00107648
1e-05 0.0176431 0.00107559 1e-05 0.0177754 0.00107468 1e-05 0.0179087 0.00107376 1e-05
0.018042 0.00107281 1e-05 0.0181753 0.00107185 1e-05 0.0183087 0.00107087 1e-05 0.018442
0.00106987 1e-05 0.0185763 0.00106886 1e-05 0.0187107 0.00106783 1e-05 0.018845 0.00106677
1e-05 0.0189794 0.00106569 1e-05 0.0191137 0.00106461 1e-05 0.0192491 0.00106351 1e-05
0.0193845 0.00106238 1e-05 0.0195199 0.00106122 1e-05 0.0196553 0.00106005 1e-05 0.0197907
0.00105887 1e-05 0.0199272 0.00105767 1e-05 0.0200636 0.00105645 1e-05 0.0202001 0.00105519
1e-05 0.0203365 0.00105392 1e-05 0.020473 0.00105264 1e-05 0.0206105 0.00105134 1e-05
0.020748 0.00105002 1e-05 0.0208855 0.00104866 1e-05 0.021023 0.00104728 1e-05 0.0211606
0.0010459 1e-05 0.0212991 0.0010445 1e-05 0.0214377 0.00104307 1e-05 0.0215763 0.0010416
1e-05 0.0217149 0.00104012 1e-05 0.0218535 0.00103863 1e-05 0.0219931 0.00103712 1e-05
0.0221328 0.00103558 1e-05 0.0222724 0.00103401 1e-05 0.0224121 0.00103241 1e-05 0.0225517
0.00103081 1e-05 0.0226925 0.00102919 1e-05 0.0228332 0.00102754 1e-05 0.022974 0.00102585
1e-05 0.0231147 0.00102413 1e-05 0.0232555 0.00102242 1e-05 0.0233973 0.00102069 1e-05
0.0235391 0.00101892 1e-05 0.023681 0.00101711 1e-05 0.0238228 0.00101528 1e-05 0.0239647
0.00101344 1e-05 0.0241076 0.00101159 1e-05 0.0242505 0.0010097 1e-05 0.0243935 0.00100777
1e-05 0.0245364 0.00100582 1e-05 0.0246794 0.00100386 1e-05 0.0248234 0.00100188 1e-05
0.0249675 0.000999861 1e-05 0.0251115 0.000997807 1e-05 0.0252556 0.000995733 1e-05 0.0253996
0.000993645 1e-05 0.0255448 0.000991536 1e-05 0.02569 0.000989384 1e-05 0.0258351 0.000987201
1e-05 0.0259803 0.000984995 1e-05 0.0261255 0.000982773 1e-05 0.0262718 0.000980528 1e-05
0.0264181 0.000978238 1e-05 0.0265644 0.00097592 1e-05 0.0267107 0.000973579 1e-05 0.026857
0.000971216 1e-05 0.0270044 0.000968829 1e-05 0.0271519 0.000966396 1e-05 0.0272993 0.000963939
1e-05 0.0274467 0.000961456 1e-05 0.0275942 0.00095895 1e-05 0.0277428 0.000956415 1e-05
0.0278914 0.000953836 1e-05 0.0280399 0.000951232 1e-05 0.0281885 0.000948603 1e-05 0.0283371
0.000945949 1e-05 0.0284869 0.00094326 1e-05 0.0286366 0.000940531 1e-05 0.0287863 0.000937776
1e-05 0.0289361 0.000934995 1e-05 0.0290858 0.000932186 1e-05 0.0292367 0.000929338 1e-05
0.0293876 0.000926453 1e-05 0.0295385 0.00092354 1e-05 0.0296894 0.000920599 1e-05 0.0298403
0.000917631 1e-05 0.0299924 0.000914616 1e-05 0.0301445 0.000911567 1e-05 0.0302966 0.000908489
1e-05 0.0304486 0.000905382 1e-05 0.0306007 0.000902246 1e-05 0.0306317 0.000901602 1e-05
0.0306626 0.000900957 1e-05 0.0306935 0.00090031 1e-05 0.0307245 0.000899662 1e-05 0.030755
0.000899023 1e-05 0.0308774 0.000896451 1e-05 0.0309998 0.000893859 1e-05 0.0311222 0.000891248
1e-05 0.0312446 0.000888617 1e-05 0.031367 0.000885967 1e-05 0.0315215 0.000882602 1e-05
[...]
POINT_DATA 12065
FIELD attributes 4
age 1 12065 float
-9.99912e-06 -7.99918e-06 -5.9993e-06 -3.99947e-06 -1.99971e-06 0 2.96524e-05 5.92903e-05 8.89135e-05 0.000118522 0.000148117
0.000178431 0.000208729 0.000239016 0.000269292 0.000299557 0.000328607 0.000357652 0.000386695 0.000415736 0.000444776
0.000472656 0.000500536 0.000528417 0.0005563 0.000584185 0.000592811 0.000601437 0.000610063 0.000618689 0.000627237
0.000645401 0.000663567 0.000681734 0.000699901 0.00071807 0.000743784 0.000769499 0.000795217 0.000820938 0.000846662
0.000871361 0.000896062 0.000920766 0.000945473 0.000970184 0.000993911 0.00101764 0.00104137 0.00106511 0.00108885
0.00111164 0.00113444 0.00115724 0.00118004 0.00120285 0.00122475 0.00124666 0.00126856 0.00129047 0.00131238
0.00133343 0.00135447 0.00137552 0.00139657 0.00141762 0.00143785 0.00145807 0.00147829 0.00149851 0.00151874
0.00153817 0.0015576 0.00157703 0.00159646 0.0016159 0.00163457 0.00165324 0.00167191 0.00169058 0.00170925
0.00172719 0.00174513 0.00176306 0.001781 0.00179895 0.00181619 0.00183342 0.00185065 0.00186789 0.00188513
0.00190169 0.00191825 0.0019348 0.00195136 0.00196793 0.00198385 0.00199975 0.00201566 0.00203157 0.00204749
0.00205812 0.00206875 0.00207938 0.00209001 0.00210064 0.00211137 0.00212209 0.00213281 0.00214354 0.00215427
0.00216509 0.0021759 0.00218672 0.00219753 0.00220835 0.00221927 0.00223018 0.00224108 0.002252 0.00226291
0.00227392 0.00228492 0.00229592 0.00230692 0.00231793 0.00232903 0.00234013 0.00235123 0.00236233 0.00237343
0.00238464 0.00239583 0.00240703 0.00241823 0.00242943 0.00244073 0.00245203 0.00246333 0.00247463 0.00248594
0.00249734 0.00250874 0.00252015 0.00253156 0.00254297 0.00255448 0.00256598 0.00257749 0.00258901 0.00260053
0.00261215 0.00262376 0.00263538 0.00264701 0.00265864 0.00267037 0.0026821 0.00269384 0.00270558 0.00271733
0.00272109 0.00272485 0.00272862 0.00273238 0.00273611 0.0027442 0.0027523 0.0027604 0.0027685 0.00277661
0.00278858 0.00280055 0.00281253 0.00282451 0.00283651 0.00284861 0.00286071 0.00287282 0.00288493 0.00289705
0.0029093 0.00292153 0.00293377 0.00294602 0.00295828 0.00297067 0.00298304 0.00299542 0.00300781 0.0030202
0.00303274 0.00304526 0.00305778 0.00307032 0.00308286 0.00309556 0.00310822 0.0031209 0.00313358 0.00314628
0.00315914 0.00317196 0.00318479 0.00319763 0.00321048 0.00322351 0.00323649 0.00324948 0.00326248 0.0032755
0.0032887 0.00330185 0.003315 0.00332818 0.00334136 0.00335474 0.00336806 0.00338139 0.00339473 0.00340809
0.00342165 0.00343515 0.00344866 0.00346218 0.00347573 0.00348947 0.00350316 0.00351685 0.00353056 0.0035443
0.00355823 0.00357211 0.003586 0.0035999 0.00361383 0.00362796 0.00364204 0.00365611 0.00367021 0.00368434
0.00369867 0.00371295 0.00372723 0.00374152 0.00375586 0.00377038 0.00378488 0.00379935 0.00381385 0.00382839
0.00384313 0.00385783 0.00387251 0.00388721 0.00390197 0.00391691 0.00393183 0.00394672 0.00396163 0.00397661
0.00399176 0.00400689 0.004022 0.00403713 0.00405232 0.00406768 0.00408303 0.00409837 0.00411372 0.00412913
0.00414471 0.00416029 0.00417584 0.00419142 0.00420705 0.00422286 0.00423866 0.00425444 0.00427025 0.0042861
0.00430214 0.00431816 0.00433418 0.00435021 0.0043663 0.00438256 0.00439882 0.00441507 0.00443133 0.00444765
0.00446414 0.00448063 0.00449712 0.00451362 0.00453017 0.0045469 0.00456362 0.00458035 0.00459709 0.00461388
0.00463084 0.0046478 0.00466477 0.00468176 0.00469879 0.00471599 0.0047332 0.00475041 0.00476764 0.00478491
0.00480236 0.00481981 0.00483727 0.00485476 0.00487227 0.00488996 0.00490766 0.00492537 0.00494311 0.00496087
0.00497881 0.00499676 0.00501473 0.00503272 0.00505074 0.00506893 0.00508714 0.00510536 0.00512361 0.00514189
0.00516034 0.0051788 0.00519729 0.00521581 0.00523434 0.00525305 0.00527178 0.00529054 0.00530931 0.00532812
0.00534709 0.00536609 0.00538512 0.00540416 0.00542324 0.00542712 0.00543101 0.00543489 0.00543878 0.00544262
0.00545801 0.00547342 0.00548884 0.00550428 0.00551974 0.00553927 0.00555882 0.0055784 0.00559801 0.00561764
0.00563745 0.00565729 0.00567716 0.00569705 0.00571698 0.00573708 0.00575721 0.00577737 0.00579756 0.00581778
0.00583818 0.00585861 0.00587907 0.00589956 0.00592008 0.00594079 0.00596152 0.00598229 0.00600308 0.00602391
0.00604492 0.00606597 0.00608705 0.00610816 0.0061293 0.00615063 0.00617199 0.00619339 0.00621482 0.00623628
0.00625794 0.00627963 0.00630135 0.00632311 0.0063449 0.00636689 0.00638892 0.00641098 0.00643308 0.0064552
0.00647753 0.0064999 0.00652231 0.00654475 0.00656723 0.00658991 0.00661263 0.00663539 0.00665819 0.00668102
0.00670406 0.00672714 0.00675027 0.00677343 0.00679662 0.00682004 0.00684349 0.00686699 0.00689052 0.0069141
0.00693789 0.00696173 0.00698562 0.00700954 0.0070335 0.00705769 0.00708192 0.0071062 0.00713052 0.00715488
0.0071692 0.00718354 0.00719789 0.00721226 0.00722612 0.00723655 0.00724699 0.00725744 0.0072679 0.00727836
0.00730338 0.00732844 0.00735355 0.0073787 0.00740391 0.00742936 0.00745485 0.0074804 0.007506 0.00753165
0.00755754 0.00758348 0.00760948 0.00763553 0.00766163 0.00768797 0.00771437 0.00774083 0.00776735 0.00779391
0.00782072 0.00784759 0.00787453 0.00790152 0.00792856 0.00795585 0.0079832 0.00801062 0.0080381 0.00806563
0.0080934 0.00812125 0.00814917 0.00817715 0.00820517 0.00823345 0.0082618 0.00829023 0.0083187 0.00834723
0.00837603 0.0084049 0.00843383 0.00846282 0.00849187 0.00852118 0.00855058 0.00858003 0.00860954 0.0086391
0.00866895 0.00869887 0.00872885 0.00875888 0.00878897 0.00879128 0.0087936 0.00879591 0.00879822 0.00880053
0.00882863 0.00885677 0.00888497 0.00891323 0.00894153 0.00897246 0.00900344 0.00903449 0.0090656 0.00909677
0.00912824 0.00915976 0.00919135 0.00922301 0.00925472 0.00928672 0.00931879 0.00935092 0.00938312 0.00941536
0.0094479 0.0094805 0.00951318 0.00954591 0.00957868 0.00961175 0.00964489 0.00967809 0.00971134 0.00974464
0.00977824 0.0098119 0.00984562 0.00987939 0.0099132 0.00994731 0.00998149 0.0100157 0.01005 0.0100843
0.0101189 0.0101536 0.0101883 0.0102231 0.0102579 0.010293 0.0103281 0.0103633 0.0103986 0.0104338
0.0104694 0.0105051 0.0105407 0.0105764 0.0106121 0.0106172 0.0106222 0.0106272 0.0106322 0.0106373
0.0106683 0.0106994 0.0107305 0.0107616 0.0107927 0.0108292 0.0108657 0.0109022 0.0109388 0.0109754
0.0110123 0.0110492 0.0110861 0.0111231 0.0111601 0.0111974 0.0112347 0.011272 0.0113094 0.0113468
0.0113845 0.0114222 0.0114599 0.0114977 0.0115354 0.0115735 0.0116116 0.0116497 0.0116878 0.0117259
0.0117643 0.0118028 0.0118412 0.0118797 0.0119182 0.011957 0.0119958 0.0120346 0.0120734 0.0121123
0.0121514 0.0121906 0.0122297 0.0122689 0.0123081 0.0123476 0.0123871 0.0124266 0.0124661 0.0125056
0.0125455 0.0125853 0.0126252 0.012665 0.0127049 0.0127451 0.0127853 0.0128254 0.0128656 0.0129059
0.0129464 0.0129869 0.0130275 0.013068 0.0131086 0.0131494 0.0131903 0.0132312 0.0132721 0.013313
0.0133543 0.0133955 0.0134368 0.013478 0.0135193 0.0135529 0.0135865 0.0136201 0.0136538 0.0136837
0.0136924 0.0137012 0.0137099 0.0137187 0.0137275 0.0137694 0.0138114 0.0138534 0.0138955 0.0139375
0.0139799 0.0140223 0.0140647 0.0141071 0.0141495 0.0141923 0.0142351 0.0142779 0.0143208 0.0143636
0.0144068 0.0144501 0.0144933 0.0145366 0.0145799 0.0146236 0.0146673 0.014711 0.0147547 0.0147985
0.0148427 0.0148869 0.0149311 0.0149753 0.0150196 0.0150643 0.015109 0.0151537 0.0151985 0.0152434
0.0152886 0.0153338 0.0153791 0.0154245 0.0154699 0.0155157 0.0155616 0.0156075 0.0156535 0.0156995
0.0157101 0.0157206 0.0157311 0.0157416 0.0157518 0.0157878 0.0158239 0.0158601 0.0158963 0.0159325
0.0159796 0.0160268 0.0160741 0.0161214 0.0161689 0.0162167 0.0162647 0.0163127 0.0163608 0.016409
0.0164577 0.0165064 0.0165552 0.0166041 0.0166532 0.0167027 0.0167523 0.016802 0.0168518 0.0169018
0.016934 0.0169661 0.0169983 0.0170306 0.0170598 0.0170789 0.017098 0.0171171 0.0171363 0.0171555
0.0172069 0.0172585 0.0173102 0.017362 0.0174141 0.0174667 0.0175194 0.0175722 0.0176251 0.0176784
0.0177321 0.017786 0.0178401 0.0178943 0.0179488 0.0179805 0.0180123 0.0180441 0.0180759 0.0181054
0.0181295 0.0181536 0.0181778 0.018202 0.0182262 0.0182827 0.0183394 0.0183962 0.0184532 0.0185107
0.0185687 0.018627 0.0186854 0.018744 0.0188032 0.0188496 0.0188962 0.018943 0.0189899 0.0190325
0.0190469 0.0190614 0.0190758 0.0190902 0.0191047 0.0191663 0.0192281 0.0192902 0.0193526 0.0194156
0.0194792 0.0195431 0.0196072 0.0196717 0.0197369 0.0197704 0.019804 0.0198377 0.0198715 0.0199035
0.0199366 0.0199699 0.0200033 0.0200367 0.0200704 0.0201387 0.0202073 0.0202763 0.0203457 0.020416
0.0204841 0.0205527 0.0206216 0.0206908 0.020754 0.0207583 0.0207627 0.020767 0.0207714 0.0207757
0.0208497 0.0209241 0.020999 0.0210743 0.0211507 0.0212279 0.0213055 0.0213837 0.0214625 0.0215423
0.0215557 0.021569 0.0215824 0.0215958 0.021609 0.0216769 0.0217452 0.0218139 0.021883 0.0219529
0.0220376 0.0221228 0.0222087 0.0222952 0.022383 0.0224043 0.0224256 0.0224469 0.0224683 0.0224894
0.0225578 0.0226266 0.0226958 0.0227654 0.0228358 0.0229293 0.0230235 0.0231185 0.0232142 0.0233114
0.0233322 0.023353 0.0233739 0.0233948 0.0234155 0.0234939 0.0235729 0.0236523 0.0237323 0.0238132
0.0239168 0.0240213 0.0241267 0.0242329 0.0243406 0.0243543 0.024368 0.0243817 0.0243955 0.0244092
0.0245052 0.0246019 0.0246993 0.0247975 0.0248968 0.025 0.0251041 0.0252091 0.0253148 0.0254193
0.0254318 0.0254444 0.025457 0.0254696 0.0254823 0.0256032 0.0257252 0.0258482 0.0259723 0.0260974
0.0261755 0.026254 0.0263329 0.0264122 0.0264921 0.0265422 0.0265924 0.0266428 0.0266933 0.0267439
0.0268769 0.027011 0.0271461 0.0272822 0.0274189 0.0274649 0.027511 0.0275573 0.0276036 0.0276506
0.0277444 0.0278387 0.0279334 0.0280285 0.0281236 0.028268 0.0284134 0.0285598 0.0287071 0.0288542
0.0288677 0.0288811 0.0288946 0.0289082 0.0289217 0.0290582 0.0291953 0.0293331 0.0294716 0.0296095
0.0297524 0.029896 0.0300402 0.030185 0.0303426 0.0303513 0.03036 0.0303687 0.0303774 0.0303861
0.0305442 0.0307029 0.0308622 0.031022 0.0311807 0.0313335 0.0314867 0.0316404 0.0317944 0.0319671
0.0319716 0.0319762 0.0319807 0.0319852 0.0319897 0.0321534 0.0323174 0.0324817 0.0326463 0.0328094
0.0329748 0.0331403 0.0333061 0.0334719 0.0336362 0.0336844 0.0337327 0.033781 0.0338293 0.0338798
0.0339974 0.0341149 0.0342324 0.0343499 0.0344666 0.0346334 0.0348 0.0349666 0.035133 0.0352979
0.0354645 0.0356309 0.035797 0.0359629 0.0361274 0.0361467 0.036166 0.0361853 0.0362046 0.0362242
0.0363707 0.0365169 0.0366628 0.0368084 0.036953 0.037118 0.0372827 0.0374469 0.0376107 0.0377732
0.037937 0.0381003 0.0382632 0.0384256 0.0385868 0.0387226 0.0388581 0.0389933 0.0391281 0.0392859
0.0393073 0.0393286 0.03935 0.0393713 0.0393926 0.0395534 0.0397136 0.0398733 0.0400325 0.0401907
0.0403498 0.0405083 0.0406663 0.0408238 0.0409803 0.0411377 0.0412946 0.0414509 0.0416066 0.0417616
0.0419173 0.0420725 0.0422272 0.0423813 0.0425346 0.0426887 0.0428423 0.0429953 0.0431478 0.0432996
0.0433922 0.0434846 0.0435768 0.0436689 0.043772 0.043829 0.043886 0.0439428 0.0439996 0.0440563
0.0442073 0.0443578 0.0445078 0.0446573 0.0448062 0.0449558 0.0451049 0.0452535 0.0454016 0.0455491
0.0456974 0.0458451 0.0459924 0.0461392 0.0462855 0.0464325 0.0465791 0.0467251 0.0468707 0.0470158
0.0471617 0.0473071 0.0474521 0.0475966 0.0477406 0.0478854 0.0480298 0.0481737 0.0483172 0.0484603
0.0486041 0.0487475 0.0488905 0.0490332 0.0491754 0.0493183 0.0494609 0.0496031 0.0497449 0.0498863
0.0500285 0.0501703 0.0503118 0.0504529 0.0505937 0.0507352 0.0508764 0.0510172 0.0511578 0.051298
0.0514389 0.0515796 0.0517199 0.05186 0.0519997 0.0521403 0.0522805 0.0524205 0.0525602 0.0526996
0.05276 0.0528204 0.0528808 0.0529411 0.0530203 0.0530959 0.0531715 0.0532471 0.0533225 0.0533979
0.0535379 0.0536778 0.0538174 0.0539567 0.0540958 0.0542358 0.0543755 0.0545151 0.0546544 0.0547935
0.0549335 0.0550731 0.0552125 0.0553514 0.0554901 0.055624 0.0557574 0.0558904 0.056023 0.0561553
0.0562921 0.0564281 0.0565634 0.056698 0.056832 0.0569705 0.0571081 0.0572449 0.057381 0.0575165
0.0576565 0.0577957 0.0579342 0.0580719 0.058209 0.0583507 0.0584916 0.0586317 0.058771 0.0589097
0.0590531 0.0591956 0.0593373 0.0594782 0.0596185 0.0597635 0.0599076 0.0600509 0.0601933 0.0603352
0.0604817 0.0606274 0.0607722 0.0609163 0.0610596 0.0612077 0.0613549 0.0615013 0.0616468 0.0617916
0.0619412 0.06209 0.0622378 0.0623848 0.0625311 0.0626822 0.0628323 0.0629816 0.06313 0.0632776
0.0634301 0.0635817 0.0637323 0.0638821 0.064031 0.0641848 0.0643377 0.0644896 0.0646406 0.0647908
0.0648506 0.0649103 0.0649698 0.0650292 0.0650936 0.0651866 0.0652794 0.0653717 0.0654637 0.0655554
0.0657116 0.0658668 0.0660211 0.0661743 0.0663266 0.066484 0.0666402 0.0667954 0.0669496 0.0671028
0.0672611 0.0674182 0.0675742 0.0677293 0.0678833 0.0680424 0.0682003 0.0683571 0.0685128 0.0686674
0.0688272 0.0689857 0.069143 0.0692993 0.0694545 0.0696148 0.0697738 0.0699315 0.0700882 0.0702437
0.0704043 0.0705635 0.0707214 0.0708781 0.0710339 0.0711948 0.0713543 0.0715124 0.0716693 0.071825
0.0719855 0.0721443 0.0723015 0.0724576 0.072613 0.0727739 0.0729337 0.0730923 0.0732492 0.0734039
0.0735623 0.0737179 0.0738709 0.0740228 0.0741748 -9.99984e-06 -7.99985e-06 -5.99987e-06 -3.9999e-06 -1.99995e-06
0 2.9656e-05 5.93096e-05 8.89604e-05 0.000118608 0.000148252 0.000178625 0.000208993 0.000239357 0.000269714
0.000300066 0.000329197 0.000358323 0.000387442 0.000416556 0.000445663 0.000473602 0.000501536 0.000529465 0.000557389
0.000585308 0.000612107 0.000638902 0.000665693 0.000692479 0.000719261 0.000744969 0.000770673 0.000796373 0.00082207
0.000847762 0.000872424 0.000897083 0.000921738 0.000946389 0.000971037 0.000994697 0.00101835 0.00104201 0.00106566
0.00108931 0.00111201 0.0011347 0.0011574 0.00118009 0.00120278 0.00122455 0.00124633 0.00126811 0.00128988
0.00131165 0.00133254 0.00135344 0.00137433 0.00139522 0.00141611 0.00143616 0.00145621 0.00147625 0.0014963
0.00151634 0.00153558 0.00155482 0.00157405 0.00159329 0.00161252 0.00163098 0.00164944 0.0016679 0.00168636
0.00170481 0.00172253 0.00174024 0.00175795 0.00177566 0.00179337 0.00181037 0.00182737 0.00184437 0.00186137
0.00187836 0.00189468 0.00191099 0.0019273 0.00194361 0.00195992 0.00197558 0.00199123 0.00200689 0.00202254
0.0020382 0.00204865 0.0020591 0.00206954 0.00207999 0.00209044 0.00210097 0.0021115 0.00212203 0.00213255
0.00214308 0.00215369 0.0021643 0.00217491 0.00218551 0.00219612 0.00220681 0.0022175 0.00222819 0.00223888
0.00224956 0.00226033 0.0022711 0.00228187 0.00229264 0.00230341 0.00231426 0.00232512 0.00233597 0.00234682
0.00235767 0.00236861 0.00237954 0.00239047 0.00240141 0.00241234 0.00242336 0.00243438 0.0024454 0.00245641
0.00246743 0.00247853 0.00248964 0.00250074 0.00251184 0.00252294 0.00253413 0.00254531 0.0025565 0.00256769
0.00257887 0.00259015 0.00260142 0.00261269 0.00262396 0.00263524 0.0026466 0.00265796 0.00266931 0.00268067
0.00269203 0.00270348 0.00271492 0.00272637 0.00273781 0.00274926 0.00276079 0.00277233 0.00278386 0.00279539
0.00280693 0.00281855 0.00283017 0.00284179 0.00285342 0.00286504 0.00287675 0.00288846 0.00290017 0.00291188
0.00292359 0.00293539 0.0029472 0.002959 0.0029708 0.0029826 0.00299449 0.00300638 0.00301827 0.00303016
0.00304205 0.00305404 0.00306602 0.003078 0.00308998 0.00310196 0.00311404 0.00312611 0.00313819 0.00315026
0.00316234 0.0031745 0.00318667 0.00319884 0.003211 0.00322317 0.00323543 0.00324769 0.00325995 0.00327221
0.00328447 0.00329682 0.00330917 0.00332153 0.00333388 0.00334623 0.00335868 0.00337113 0.00338358 0.00339603
0.00340847 0.00342102 0.00343356 0.0034461 0.00345865 0.00347119 0.00348383 0.00349647 0.00350911 0.00352175
0.00353438 0.00354712 0.00355986 0.00357259 0.00358533 0.00359806 0.0036109 0.00362373 0.00363657 0.0036494
0.00366223 0.00367068 0.00367913 0.00368758 0.00369603 0.00370439 0.00370889 0.00371339 0.00371789 0.00372239
0.00372689 0.00373992 0.00375295 0.00376598 0.00377901 0.00379204 0.00380517 0.0038183 0.00383144 0.00384457
0.0038577 0.00387093 0.00388416 0.00389739 0.00391062 0.00392385 0.00393719 0.00395052 0.00396385 0.00397719
0.00399052 0.00400396 0.00401739 0.00403083 0.00404426 0.0040577 0.00407124 0.00408478 0.00409832 0.00411186
0.0041254 0.00413904 0.00415269 0.00416633 0.00417998 0.00419362 0.00420737 0.00422112 0.00423487 0.00424862
0.00426237 0.00427623 0.00429008 0.00430394 0.0043178 0.00433165 0.00434562 0.00435958 0.00437355 0.00438751
0.00440147 0.00441555 0.00442962 0.00444369 0.00445777 0.00447184 0.00448603 0.00450021 0.00451439 0.00452857
0.00454276 0.00455705 0.00457135 0.00458564 0.00459994 0.00461423 0.00462864 0.00464305 0.00465746 0.00467186
0.00468627 0.00470079 0.00471532 0.00472983 0.00474436 0.00475888 0.00477352 0.00478815 0.00480279 0.00481742
0.00483206 0.00484682 0.00486157 0.00487632 0.00489107 0.00490583 0.0049207 0.00493557 0.00495044 0.00496532
0.00498019 0.00499518 0.00501017 0.00502516 0.00504015 0.00505515 0.00507026 0.00508537 0.00510048 0.0051156
0.00513071 0.00514595 0.00516118 0.00517642 0.00519166 0.00520689 0.00522225 0.00523761 0.00525297 0.00526834
0.0052837 0.00529919 0.00531467 0.00533016 0.00534565 0.00536114 0.00537676 0.00539237 0.00540799 0.00542361
0.00543923 0.00545497 0.00547072 0.00548647 0.00550222 0.00551797 0.00552149 0.00552501 0.00552853 0.00553205
0.00553555 0.00554791 0.00556028 0.00557264 0.00558501 0.00559738 0.0056134 0.00562941 0.00564543 0.00566145
0.00567747 0.00569363 0.00570978 0.00572594 0.00574209 0.00575826 0.00577456 0.00579085 0.00580715 0.00582345
0.00583975 0.0058562 0.00587264 0.00588908 0.00590552 0.00592197 0.00593858 0.00595516 0.00597175 0.00598834
0.00600495 0.00602171 0.00603845 0.00605519 0.00607193 0.00608869 0.00610561 0.00612252 0.00613941 0.00615631
0.00617323 0.00619032 0.00620739 0.00622444 0.0062415 0.00625859 0.00627585 0.00629309 0.00631031 0.00632754
0.0063448 0.00636224 0.00637965 0.00639705 0.00641445 0.00643189 0.00644951 0.00646711 0.00648469 0.00650227
0.0065199 0.00653771 0.00655549 0.00657326 0.00659104 0.00660886 0.00662686 0.00664484 0.00666282 0.0066808
0.00669882 0.00671702 0.00673521 0.00675339 0.00677159 0.00678982 0.00680823 0.00682662 0.00684503 0.00686345
0.00688189 0.00690052 0.00691914 0.00693777 0.00695642 0.00697509 0.00699395 0.0070128 0.00703168 0.00705057
0.00706948 0.00708857 0.00710767 0.00712679 0.00714593 0.00716509 0.00716804 0.00717099 0.00717394 0.00717689
0.00717984 0.00719623 0.00721265 0.00722908 0.00724552 0.00726198 0.00728159 0.0073012 0.00732085 0.00734051
0.0073602 0.00738009 0.00739998 0.0074199 0.00743984 0.00745981 0.00747999 0.00750016 0.00752037 0.0075406
0.00756086 0.00758133 0.00760181 0.00762231 0.00764283 0.0076634 0.00768418 0.00770497 0.00772577 0.0077466
0.00776748 0.00778858 0.00780968 0.0078308 0.00785195 0.00787315 0.00789457 0.007916 0.00793744 0.00795892
0.00798045 0.0080022 0.00802396 0.00804574 0.00806755 0.00808942 0.00811151 0.00813362 0.00815574 0.0081779
0.00820011 0.00822255 0.008245 0.00826748 0.00828999 0.00831255 0.00833534 0.00835815 0.00838098 0.00840385
0.00842676 0.00844991 0.00847308 0.00849627 0.00851951 0.00854278 0.00856629 0.00858982 0.00861339 0.00863699
0.00866062 0.0086845 0.0087084 0.00873233 0.0087563 0.00878031 0.00880455 0.00882881 0.00885312 0.00887746
0.00890184 0.00892644 0.00895108 0.00897576 0.00900047 0.00902522 0.00903195 0.00903869 0.00904542 0.00905216
0.00905887 0.00907715 0.00909546 0.00911378 0.00913212 0.00915049 0.00917584 0.00920122 0.00922664 0.00925209
0.00927758 0.0093033 0.00932905 0.00935484 0.00938066 0.00940652 0.00943261 0.00945873 0.00948489 0.00951108
0.0095373 0.00956376 0.00959025 0.00961677 0.00964332 0.00966991 0.00969673 0.00972358 0.00975047 0.00977738
0.00980433 0.00983151 0.00985873 0.00988597 0.00991324 0.00994054 0.00996809 0.00999566 0.0100233 0.0100509
0.0100785 0.0101064 0.0101344 0.0101623 0.0101903 0.0102183 0.0102466 0.0102749 0.0103032 0.0103315
0.0103599 0.0103885 0.0104171 0.0104458 0.0104745 0.0105032 0.0105321 0.0105611 0.0105902 0.0106192